 Entering Gaussian System, Link 0=C:/Users/user/Documents/2.0Aroma/G09W/G09W/g09
 Input=input/benz-sigma-center1.in
 Output=output/benz-sigma-center1.log
 Initial command:
 C:/Users/user/Documents/2.0Aroma/G09W/G09W/\l1.exe .\gxx.inp output/benz-sigma-center1.log /scrdir=.\
 Entering Link 1 = C:/Users/user/Documents/2.0Aroma/G09W/G09W/\l1.exe PID=      5796.
  
 Copyright (c) 1988,1990,1992,1993,1995,1998,2003,2009, Gaussian, Inc.
                  All Rights Reserved.
  
 This is part of the Gaussian(R) 09 program.  It is based on
 the Gaussian(R) 03 system (copyright 2003, Gaussian, Inc.),
 the Gaussian(R) 98 system (copyright 1998, Gaussian, Inc.),
 the Gaussian(R) 94 system (copyright 1995, Gaussian, Inc.),
 the Gaussian 92(TM) system (copyright 1992, Gaussian, Inc.),
 the Gaussian 90(TM) system (copyright 1990, Gaussian, Inc.),
 the Gaussian 88(TM) system (copyright 1988, Gaussian, Inc.),
 the Gaussian 86(TM) system (copyright 1986, Carnegie Mellon
 University), and the Gaussian 82(TM) system (copyright 1983,
 Carnegie Mellon University). Gaussian is a federally registered
 trademark of Gaussian, Inc.
  
 This software contains proprietary and confidential information,
 including trade secrets, belonging to Gaussian, Inc.
  
 This software is provided under written license and may be
 used, copied, transmitted, or stored only in accord with that
 written license.
  
 The following legend is applicable only to US Government
 contracts under FAR:
  
                    RESTRICTED RIGHTS LEGEND
  
 Use, reproduction and disclosure by the US Government is
 subject to restrictions as set forth in subparagraphs (a)
 and (c) of the Commercial Computer Software - Restricted
 Rights clause in FAR 52.227-19.
  
 Gaussian, Inc.
 340 Quinnipiac St., Bldg. 40, Wallingford CT 06492
  
  
 ---------------------------------------------------------------
 Warning -- This program may not be used in any manner that
 competes with the business of Gaussian, Inc. or will provide
 assistance to any competitor of Gaussian, Inc.  The licensee
 of this program is prohibited from giving any competitor of
 Gaussian, Inc. access to this program.  By using this program,
 the user acknowledges that Gaussian, Inc. is engaged in the
 business of creating and licensing software in the field of
 computational chemistry and represents and warrants to the
 licensee that it is not a competitor of Gaussian, Inc. and that
 it will not use this program in any manner prohibited above.
 ---------------------------------------------------------------
  

 Cite this work as:
 Gaussian 09, Revision A.02,
 M. J. Frisch, G. W. Trucks, H. B. Schlegel, G. E. Scuseria, 
 M. A. Robb, J. R. Cheeseman, G. Scalmani, V. Barone, B. Mennucci, 
 G. A. Petersson, H. Nakatsuji, M. Caricato, X. Li, H. P. Hratchian, 
 A. F. Izmaylov, J. Bloino, G. Zheng, J. L. Sonnenberg, M. Hada, 
 M. Ehara, K. Toyota, R. Fukuda, J. Hasegawa, M. Ishida, T. Nakajima, 
 Y. Honda, O. Kitao, H. Nakai, T. Vreven, J. A. Montgomery, Jr., 
 J. E. Peralta, F. Ogliaro, M. Bearpark, J. J. Heyd, E. Brothers, 
 K. N. Kudin, V. N. Staroverov, R. Kobayashi, J. Normand, 
 K. Raghavachari, A. Rendell, J. C. Burant, S. S. Iyengar, J. Tomasi, 
 M. Cossi, N. Rega, J. M. Millam, M. Klene, J. E. Knox, J. B. Cross, 
 V. Bakken, C. Adamo, J. Jaramillo, R. Gomperts, R. E. Stratmann, 
 O. Yazyev, A. J. Austin, R. Cammi, C. Pomelli, J. W. Ochterski, 
 R. L. Martin, K. Morokuma, V. G. Zakrzewski, G. A. Voth, 
 P. Salvador, J. J. Dannenberg, S. Dapprich, A. D. Daniels, 
 O. Farkas, J. B. Foresman, J. V. Ortiz, J. Cioslowski, 
 and D. J. Fox, Gaussian, Inc., Wallingford CT, 2009.
 
 ******************************************
 Gaussian 09:  IA32W-G09RevA.02 11-Jun-2009
                21-Dec-2020 
 ******************************************
 %NPROC=1
 Will use up to    1 processors via shared memory.
 %MEM=1024MB
 ---------------------------------------------------------------
 # HF/STO-3G NMR=GIAO INTEGRAL=(GRID=ULTRAFINE) CPHF=(GRID=FINE)
 ---------------------------------------------------------------
 1/38=1/1;
 2/12=2,17=6,18=5,40=1/2;
 3/6=3,11=9,16=1,25=1,30=1,75=-5/1,2,8,3;
 4//1;
 5/5=2,38=5,96=4/2;
 8/6=1,10=90,11=11/1;
 10/13=100,45=16,60=4/2;
 6/7=2,8=2,9=2,10=2,28=1/1;
 99/9=1/99;
 -------------------------------------------
 -------------------------------- # Center 1
 -------------------------------------------
 Symbolic Z-matrix:
 Charge =  0 Multiplicity = 3
 6                     0.        0.        0. 
 6                     0.        0.        1.39415 
 6                     1.2073    0.        2.09123 
 6                     2.41482   0.        1.39426 
 6                     2.41482   0.        0.00021 
 6                     1.20743   0.       -0.69692 
 1                     1.20767   0.       -1.78249 
 1                     3.35498   0.       -0.54254 
 1                     3.35486   0.        1.93718 
 1                     1.2072    0.00002   3.1768 
 1                    -0.94022   0.        1.93679 
 1                    -0.94011   0.       -0.54281 
 0                     1.20739   0.        0.69715 
 0                     1.2074   -1.        0.69715 
 1                    -0.07548  -0.9962   -0.04358 
 1                    -0.07548  -0.9962    1.43772 
 1                     1.2073   -0.9962    2.17839 
 1                     2.4903   -0.9962    1.43783 
 1                     2.4903   -0.9962   -0.04336 
 1                     1.20743  -0.9962   -0.78408 
 0                     6.94112  -4.99998  -3.44103 
 0                     5.79438  -3.99998  -2.61339 
 0                    -2.23284   2.99999   3.18006 
 bq                    5.        5.        5. 
 bq                    4.        4.        4. 
 bq                   -3.       -3.       -3. 
 
                          Input orientation:                          
 ---------------------------------------------------------------------
 Center     Atomic      Atomic             Coordinates (Angstroms)
 Number     Number       Type             X           Y           Z
 ---------------------------------------------------------------------
      1          6           0        0.000000    0.000000    0.000000
      2          6           0        0.000000    0.000000    1.394150
      3          6           0        1.207300    0.000000    2.091230
      4          6           0        2.414820    0.000000    1.394260
      5          6           0        2.414820    0.000000    0.000210
      6          6           0        1.207430    0.000000   -0.696920
      7          1           0        1.207670    0.000000   -1.782490
      8          1           0        3.354980    0.000000   -0.542540
      9          1           0        3.354860    0.000000    1.937180
     10          1           0        1.207200    0.000020    3.176800
     11          1           0       -0.940220    0.000000    1.936790
     12          1           0       -0.940110    0.000000   -0.542810
     13          0           0        1.207390    0.000000    0.697150
     14          0           0        1.207400   -1.000000    0.697150
     15          1           0       -0.075480   -0.996200   -0.043580
     16          1           0       -0.075480   -0.996200    1.437720
     17          1           0        1.207300   -0.996200    2.178390
     18          1           0        2.490300   -0.996200    1.437830
     19          1           0        2.490300   -0.996200   -0.043360
     20          1           0        1.207430   -0.996200   -0.784080
     21          0           0        6.941120   -4.999980   -3.441030
     22          0           0        5.794380   -3.999980   -2.613390
     23          0           0       -2.232840    2.999990    3.180060
     24          0           0        5.000000    5.000000    5.000000
     25          0           0        4.000000    4.000000    4.000000
     26          0           0       -3.000000   -3.000000   -3.000000
 ---------------------------------------------------------------------
                    Distance matrix (angstroms):
                    1          2          3          4          5
     1  C    0.000000
     2  C    1.394150   0.000000
     3  C    2.414708   1.394092   0.000000
     4  C    2.788425   2.414820   1.394228   0.000000
     5  C    2.414820   2.788265   2.414636   1.394050   0.000000
     6  C    1.394125   2.414635   2.788150   2.414710   1.394195
     7  H    2.153076   3.398457   3.873720   3.398375   2.152959
     8  H    3.398564   3.873843   3.398422   2.152927   1.085577
     9  H    3.873984   3.398524   2.153078   1.085559   2.153028
    10  H    3.398439   2.152945   1.085570   2.153090   3.398392
    11  H    2.152944   1.085574   2.153066   3.398622   3.873840
    12  H    1.085564   2.153049   3.398461   3.873990   3.398592
    13  Bq   1.394205   1.394130   1.394080   1.394220   1.394135
    14  Bq   1.715760   1.715699   1.715651   1.715758   1.715689
    15  H    1.000005   1.750765   2.682415   3.043254   2.682522
    16  H    1.750757   1.000005   1.750718   2.682517   3.043098
    17  H    2.682419   1.750720   1.000006   1.750822   2.682347
    18  H    3.043249   2.682521   1.750838   1.000005   1.750675
    19  H    2.682515   3.043098   2.682346   1.750675   1.000005
    20  H    1.750738   2.682347   3.042996   2.682419   1.750804
    21  Bq   9.220609   9.826389   9.406508   8.298628   7.571613
    22  Bq   7.510292   8.101547   7.692502   6.594128   5.852535
    23  Bq   4.909002   4.144272   4.692553   5.812896   6.380606
    24  Bq   8.660254   7.937390   6.917045   6.684648   7.528682
    25  Bq   6.928203   6.228198   5.238566   5.030177   5.874616
    26  Bq   5.196152   6.108073   7.254102   7.591429   6.879065
                    6          7          8          9         10
     6  C    0.000000
     7  H    1.085570   0.000000
     8  H    2.153092   2.479600   0.000000
     9  H    3.398520   4.294924   2.479720   0.000000
    10  H    3.873720   4.959290   4.294933   2.479738   0.000000
    11  H    3.398357   4.294936   4.959417   4.295080   2.479725
    12  H    2.153062   2.479872   4.295090   4.959548   4.294932
    13  Bq   1.394070   2.479640   2.479713   2.479779   2.479650
    14  Bq   1.715643   2.673689   2.673749   2.673810   2.673706
    15  H    1.750750   2.379642   3.606859   4.084490   3.606739
    16  H    2.682342   3.606749   4.084348   3.606814   2.379521
    17  H    3.042996   4.084236   3.606716   2.379624   1.410417
    18  H    2.682411   3.606663   2.379486   1.410400   2.379667
    19  H    1.750803   2.379522   1.410414   2.379583   3.606692
    20  H    1.000006   1.410403   2.379649   3.606817   4.084241
    21  Bq   8.087344   7.786078   6.801577   8.172283  10.083328
    22  Bq   6.380659   6.142324   5.122395   6.531369   8.400507
    23  Bq   5.988854   6.742696   7.354007   6.462746   4.564395
    24  Bq   8.475759   9.240343   7.643680   6.089939   6.535227
    25  Bq   6.771965   7.565335   6.086930   4.546585   4.947447
    26  Bq   5.657442   5.309126   7.444789   8.588364   8.053168
                   11         12         13         14         15
    11  H    0.000000
    12  H    2.479600   0.000000
    13  Bq   2.479705   2.479770   0.000000
    14  Bq   2.673757   2.673817   1.000000   0.000000
    15  H    2.379507   1.410401   1.785175   1.481377   0.000000
    16  H    1.410411   2.379601   1.785109   1.481297   1.481300
    17  H    2.379628   3.606759   1.785073   1.481245   2.565672
    18  H    3.606916   4.084490   1.785183   1.481369   2.962736
    19  H    4.084345   3.606879   1.785113   1.481284   2.565780
    20  H    3.606653   2.379612   1.785065   1.481235   1.481283
    21  Bq  10.772013   9.773089   8.660254   8.124033   8.763880
    22  Bq   9.058632   8.101882   6.928203   6.403120   7.076855
    23  Bq   3.495215   4.952863   5.196149   5.830953   5.569164
    24  Bq   8.346824   9.539793   7.609100   8.300502   9.335556
    25  Bq   6.683009   7.812926   5.891306   6.611160   7.610656
    26  Bq   6.133073   4.391006   6.353822   5.947364   4.616108
                   16         17         18         19         20
    16  H    0.000000
    17  H    1.481255   0.000000
    18  H    2.565780   1.481391   0.000000
    19  H    2.962571   2.565592   1.481190   0.000000
    20  H    2.565590   2.962470   2.565666   1.481358   0.000000
    21  Bq   9.437432   8.971334   7.722909   6.883619   7.480965
    22  Bq   7.738827   7.281837   6.029264   5.152154   5.780067
    23  Bq   4.864102   5.367256   6.427515   6.976247   6.596923
    24  Bq   8.625819   7.635474   7.412291   8.227301   9.153883
    25  Bq   6.938071   6.006617   5.814286   6.602270   7.459751
    26  Bq   5.679911   6.966514   7.338456   6.549834   5.160231
                   21         22         23         24         25
    21  Bq   0.000000
    22  Bq   1.732051   0.000000
    23  Bq  13.856403  12.124352   0.000000
    24  Bq  13.229457  11.815007   7.721800   0.000000
    25  Bq  12.042373  10.533585   6.365581   1.732051   0.000000
    26  Bq  10.149891   8.859489   8.647633  13.856406  12.124356
                   26
    26  Bq   0.000000
 Symmetry turned off:
 Cannot cope with ghost atoms or with translation vectors.
 Stoichiometry    C6H12(3)
 Framework group  C1[X(C6H12)]
 NUMDOF-- NAT=    18 NAtoms=    26
 Deg. of freedom     0
 Full point group                 C1      NOp   1
 Rotational constants (GHZ):      5.0157714      5.0150158      2.6544128
 Standard basis: STO-3G (5D, 7F)
 Warning:  center  13 has no basis functions!
 Warning:  center  14 has no basis functions!
 Warning:  center  21 has no basis functions!
 Warning:  center  22 has no basis functions!
 Warning:  center  23 has no basis functions!
 Warning:  center  24 has no basis functions!
 Warning:  center  25 has no basis functions!
 Warning:  center  26 has no basis functions!
 Integral buffers will be    262144 words long.
 Raffenetti 2 integral format.
 Two-electron integral symmetry is turned off.
    42 basis functions,   126 primitive gaussians,    42 cartesian basis functions
    25 alpha electrons       23 beta electrons
       nuclear repulsion energy       276.1851502337 Hartrees.
 NAtoms=   26 NActive=   26 NUniq=   26 SFac= 7.50D-01 NAtFMM=   80 NAOKFM=F Big=F
 One-electron integrals computed using PRISM.
 NBasis=    42 RedAO= T  NBF=    42
 NBsUse=    42 1.00D-06 NBFU=    42
 Harris functional with IExCor=  205 diagonalized for initial guess.
 ExpMin= 1.69D-01 ExpMax= 7.16D+01 ExpMxC= 7.16D+01 IAcc=3 IRadAn=         5 AccDes= 0.00D+00
 HarFok:  IExCor=  205 AccDes= 0.00D+00 IRadAn=         5 IDoV= 1
 ScaDFX=  1.000000  1.000000  1.000000  1.000000
 FoFCou: FMM=F IPFlag=           0 FMFlag=      100000 FMFlg1=           0
         NFxFlg=           0 DoJE=T BraDBF=F KetDBF=T FulRan=T
         Omega=  0.000000  0.000000  1.000000  0.000000  0.000000 ICntrl=     500 IOpCl=  0
         NMat0=    1 NMatS0=    1 NMatT0=    0 NMatD0=    1 NMtDS0=    0 NMtDT0=    0
         I1Cent=           4 NGrid=           0.
 Symmetry not used in FoFCou.
 Initial guess <Sx>= 0.0000 <Sy>= 0.0000 <Sz>= 1.0000 <S**2>= 2.0000 S= 1.0000
 Requested convergence on RMS density matrix=1.00D-08 within 128 cycles.
 Requested convergence on MAX density matrix=1.00D-06.
 Requested convergence on             energy=1.00D-06.
 No special actions if energy rises.
 Keep R1 and R2 ints in memory in canonical form, NReq=1640270.
 SCF Done:  E(UHF) =  -230.354439408     A.U. after   16 cycles
             Convg  =    0.1527D-08             -V/T =  1.9911
 <Sx>= 0.0000 <Sy>= 0.0000 <Sz>= 1.0000 <S**2>= 2.0057 S= 1.0019
 <L.S>= 0.000000000000E+00
 Annihilation of the first spin contaminant:
 S**2 before annihilation     2.0057,   after     2.0000
 Range of M.O.s used for correlation:     1    42
 NBasis=    42 NAE=    25 NBE=    23 NFC=     0 NFV=     0
 NROrb=     42 NOA=    25 NOB=    23 NVA=    17 NVB=    19
          Differentiating once with respect to magnetic field using GIAOs.
          Electric field/nuclear overlap derivatives assumed to be zero.
          Keep R3 ints in memory in canonical form, NReq=1208645.
 FoFCou: FMM=F IPFlag=           0 FMFlag=           0 FMFlg1=           0
         NFxFlg=           0 DoJE=F BraDBF=F KetDBF=T FulRan=T
         Omega=  0.000000  0.000000  1.000000  0.000000  0.000000 ICntrl=    6100 IOpCl=  0
         NMat0=    1 NMatS0=    1 NMatT0=    0 NMatD0=    1 NMtDS0=    0 NMtDT0=    0
         I1Cent=           7 NGrid=          26.
 Symmetry not used in FoFCou.
          There are     3 degrees of freedom in the 1st order CPHF.  IDoFFX=0.
      3 vectors produced by pass  0 Test12= 2.87D-14 3.33D-08 XBig12= 8.25D+00 8.90D-01.
 AX will form     3 AO Fock derivatives at one time.
      3 vectors produced by pass  1 Test12= 2.87D-14 3.33D-08 XBig12= 9.81D-02 1.39D-01.
      3 vectors produced by pass  2 Test12= 2.87D-14 3.33D-08 XBig12= 1.44D-03 1.35D-02.
      3 vectors produced by pass  3 Test12= 2.87D-14 3.33D-08 XBig12= 2.44D-05 2.71D-03.
      3 vectors produced by pass  4 Test12= 2.87D-14 3.33D-08 XBig12= 6.44D-07 4.08D-04.
      3 vectors produced by pass  5 Test12= 2.87D-14 3.33D-08 XBig12= 9.94D-09 2.14D-05.
      3 vectors produced by pass  6 Test12= 2.87D-14 3.33D-08 XBig12= 1.05D-10 4.21D-06.
      3 vectors produced by pass  7 Test12= 2.87D-14 3.33D-08 XBig12= 1.75D-12 4.53D-07.
      2 vectors produced by pass  8 Test12= 2.87D-14 3.33D-08 XBig12= 1.74D-14 8.16D-08.
 Inverted reduced A of dimension    26 with in-core refinement.
 Calculating GIAO nuclear magnetic shielding tensors.
 SCF GIAO Magnetic shielding tensor (ppm):
  1  C    Isotropic =   198.5842   Anisotropy =    54.4072
   XX=   173.7295   YX=   -23.9273   ZX=   -13.9535
   XY=     0.3036   YY=   232.1672   ZY=     0.1781
   XZ=   -13.9591   YZ=   -13.8118   ZZ=   189.8558
   Eigenvalues:   162.9861   197.9108   234.8556
  2  C    Isotropic =   198.5813   Anisotropy =    54.4087
   XX=   173.7220   YX=   -23.9246   ZX=    13.9361
   XY=     0.3130   YY=   232.1669   ZY=    -0.1753
   XZ=    13.9378   YZ=    13.8085   ZZ=   189.8550
   Eigenvalues:   162.9986   197.8915   234.8537
  3  C    Isotropic =   198.5766   Anisotropy =    54.4109
   XX=   197.8869   YX=     0.0094   ZX=    -0.0078
   XY=     0.0040   YY=   232.1614   ZY=    -0.3487
   XZ=    -0.0087   YZ=    27.6258   ZZ=   165.6816
   Eigenvalues:   162.9924   197.8869   234.8506
  4  C    Isotropic =   198.5796   Anisotropy =    54.4138
   XX=   173.7433   YX=    23.9237   ZX=   -13.9743
   XY=    -0.2993   YY=   232.1667   ZY=    -0.1811
   XZ=   -13.9640   YZ=    13.8202   ZZ=   189.8289
   Eigenvalues:   162.9782   197.9052   234.8555
  5  C    Isotropic =   198.5830   Anisotropy =    54.4054
   XX=   173.7401   YX=    23.9189   ZX=    13.9540
   XY=    -0.3109   YY=   232.1664   ZY=     0.1793
   XZ=    13.9376   YZ=   -13.8177   ZZ=   189.8424
   Eigenvalues:   163.0013   197.8943   234.8533
  6  C    Isotropic =   198.5837   Anisotropy =    54.4003
   XX=   197.8976   YX=     0.0002   ZX=     0.0066
   XY=    -0.0084   YY=   232.1619   ZY=     0.3514
   XZ=     0.0223   YZ=   -27.6238   ZZ=   165.6916
   Eigenvalues:   163.0029   197.8977   234.8506
  7  H    Isotropic =    30.5002   Anisotropy =    13.1927
   XX=    28.0405   YX=    -0.0001   ZX=    -0.0016
   XY=     0.0003   YY=    24.1650   ZY=    -1.1439
   XZ=    -0.0018   YZ=     1.0264   ZZ=    39.2951
   Eigenvalues:    24.1648    28.0405    39.2953
  8  H    Isotropic =    30.4998   Anisotropy =    13.1925
   XX=    36.4813   YX=    -0.8887   ZX=    -4.8726
   XY=     0.9904   YY=    24.1646   ZY=    -0.5716
   XZ=    -4.8735   YZ=     0.5133   ZZ=    30.8536
   Eigenvalues:    24.1644    28.0403    39.2948
  9  H    Isotropic =    30.4995   Anisotropy =    13.1907
   XX=    36.4790   YX=    -0.8885   ZX=     4.8734
   XY=     0.9910   YY=    24.1658   ZY=     0.5722
   XZ=     4.8733   YZ=    -0.5132   ZZ=    30.8538
   Eigenvalues:    24.1656    28.0397    39.2934
 10  H    Isotropic =    30.5001   Anisotropy =    13.1920
   XX=    28.0406   YX=    -0.0001   ZX=    -0.0014
   XY=    -0.0001   YY=    24.1650   ZY=     1.1443
   XZ=    -0.0013   YZ=    -1.0262   ZZ=    39.2945
   Eigenvalues:    24.1648    28.0406    39.2947
 11  H    Isotropic =    30.4998   Anisotropy =    13.1923
   XX=    36.4815   YX=     0.8888   ZX=    -4.8725
   XY=    -0.9906   YY=    24.1646   ZY=     0.5714
   XZ=    -4.8733   YZ=    -0.5131   ZZ=    30.8533
   Eigenvalues:    24.1644    28.0404    39.2947
 12  H    Isotropic =    30.4996   Anisotropy =    13.1912
   XX=    36.4795   YX=     0.8886   ZX=     4.8733
   XY=    -0.9910   YY=    24.1657   ZY=    -0.5719
   XZ=     4.8735   YZ=     0.5131   ZZ=    30.8536
   Eigenvalues:    24.1655    28.0396    39.2937
 13  Bq   Isotropic =     9.1824   Anisotropy =    15.8838
   XX=    19.7672   YX=    -0.0001   ZX=    -0.0010
   XY=     0.0000   YY=   -11.9911   ZY=     0.0000
   XZ=    -0.0020   YZ=    -0.0003   ZZ=    19.7710
   Eigenvalues:   -11.9911    19.7667    19.7716
 14  Bq   Isotropic =     6.7216   Anisotropy =    14.5011
   XX=     1.8876   YX=     0.0000   ZX=     0.0001
   XY=     0.0001   YY=    16.3890   ZY=     0.0001
   XZ=     0.0000   YZ=    -0.0003   ZZ=     1.8882
   Eigenvalues:     1.8876     1.8882    16.3890
 15  H    Isotropic =    34.7139   Anisotropy =    17.8580
   XX=    29.2372   YX=     3.6284   ZX=    -1.0319
   XY=     7.1161   YY=    44.4786   ZY=     4.1091
   XZ=    -1.0320   YZ=     2.0957   ZZ=    30.4259
   Eigenvalues:    26.5000    31.0224    46.6192
 16  H    Isotropic =    34.7138   Anisotropy =    17.8584
   XX=    29.2367   YX=     3.6293   ZX=     1.0334
   XY=     7.1168   YY=    44.4787   ZY=    -4.1083
   XZ=     1.0339   YZ=    -2.0956   ZZ=    30.4259
   Eigenvalues:    26.4981    31.0238    46.6194
 17  H    Isotropic =    34.7146   Anisotropy =    17.8571
   XX=    31.0253   YX=     0.0010   ZX=     0.0020
   XY=     0.0011   YY=    44.4784   ZY=    -8.2178
   XZ=     0.0015   YZ=    -4.1906   ZZ=    28.6401
   Eigenvalues:    26.4991    31.0253    46.6193
 18  H    Isotropic =    34.7140   Anisotropy =    17.8579
   XX=    29.2343   YX=    -3.6283   ZX=    -1.0298
   XY=    -7.1163   YY=    44.4786   ZY=    -4.1088
   XZ=    -1.0300   YZ=    -2.0955   ZZ=    30.4292
   Eigenvalues:    26.5004    31.0224    46.6193
 19  H    Isotropic =    34.7137   Anisotropy =    17.8584
   XX=    29.2342   YX=    -3.6296   ZX=     1.0323
   XY=    -7.1169   YY=    44.4786   ZY=     4.1079
   XZ=     1.0324   YZ=     2.0951   ZZ=    30.4283
   Eigenvalues:    26.4980    31.0238    46.6193
 20  H    Isotropic =    34.7143   Anisotropy =    17.8573
   XX=    31.0252   YX=    -0.0007   ZX=    -0.0014
   XY=    -0.0008   YY=    44.4783   ZY=     8.2177
   XZ=    -0.0018   YZ=     4.1908   ZZ=    28.6394
   Eigenvalues:    26.4986    31.0252    46.6192
 21  Bq   Isotropic =    -0.0440   Anisotropy =     0.6528
   XX=    -0.0191   YX=    -0.2699   ZX=    -0.1529
   XY=    -0.2798   YY=     0.0078   ZY=     0.2021
   XZ=    -0.1530   YZ=     0.1951   ZZ=    -0.1207
   Eigenvalues:    -0.2921    -0.2310     0.3912
 22  Bq   Isotropic =    -0.0697   Anisotropy =     1.2534
   XX=    -0.0219   YX=    -0.5031   ZX=    -0.2926
   XY=    -0.5529   YY=     0.0291   ZY=     0.3998
   XZ=    -0.2929   YZ=     0.3643   ZZ=    -0.2164
   Eigenvalues:    -0.5474    -0.4277     0.7659
 23  Bq   Isotropic =     0.1433   Anisotropy =     2.3495
   XX=     0.2710   YX=    -0.6976   ZX=    -0.5714
   XY=    -1.2654   YY=     0.2659   ZY=     0.9224
   XZ=    -0.5750   YZ=     0.5128   ZZ=    -0.1071
   Eigenvalues:    -0.7582    -0.5216     1.7096
 24  Bq   Isotropic =     0.0762   Anisotropy =     0.7218
   XX=     0.0217   YX=     0.1643   ZX=     0.1751
   XY=     0.3305   YY=     0.1407   ZY=     0.3756
   XZ=     0.1754   YZ=     0.1871   ZZ=     0.0661
   Eigenvalues:    -0.1961    -0.1327     0.5574
 25  Bq   Isotropic =     0.1459   Anisotropy =     1.5548
   XX=    -0.0382   YX=     0.3671   ZX=     0.3183
   XY=     0.6735   YY=     0.4069   ZY=     0.8004
   XZ=     0.3195   YZ=     0.4383   ZZ=     0.0690
   Eigenvalues:    -0.4368    -0.3080     1.1824
 26  Bq   Isotropic =    -0.0894   Anisotropy =     1.5946
   XX=     0.0148   YX=     0.5693   ZX=     0.4765
   XY=     0.6085   YY=    -0.1756   ZY=     0.5381
   XZ=     0.4780   YZ=     0.5058   ZZ=    -0.1075
   Eigenvalues:    -0.7144    -0.5275     0.9736
 g value of the free electron [g_e]: 0.20023193D+01
 relativistic mass correction [g_RMC]:-0.64957109D-03
 diamagnetic correction to g tensor [g_DC]:
   XX= 0.27218630D-04   YX= 0.20027140D-08   ZX= 0.64111166D-08
   XY=-0.66162535D-04   YY= 0.16617811D-04   ZY=-0.38209605D-04
   XZ= 0.11624839D-07   YZ=-0.49080421D-08   ZZ= 0.27162134D-04
 orbital Zeeman and spin-orbit coupling contribution to g tensor [g_OZ/SOC]:
   XX= 0.12436456D-02   YX=-0.46290168D-08   ZX=-0.15296058D-07
   XY= 0.66177633D-04   YY=-0.15892731D-03   ZY= 0.38218443D-04
   XZ= 0.84070362D-08   YZ= 0.52255642D-08   ZZ= 0.12437441D-02
 g tensor [g = g_e + g_RMC + g_DC + g_OZ/SOC]:
   XX= 0.20029406D+01   YX=-0.26263028D-08   ZX=-0.88849410D-08
   XY= 0.15097508D-07   YY= 0.20015274D+01   ZY= 0.88378340D-08
   XZ= 0.20031875D-07   YZ= 0.31752209D-09   ZZ= 0.20029406D+01
 g shifts relative to the free electron (ppm):
   xx=         -791.9   yy=          621.3   zz=          621.3
 End of Minotr Frequency-dependent properties file   721 does not exist.
 End of Minotr Frequency-dependent properties file   722 does not exist.

 **********************************************************************

            Population analysis using the SCF density.

 **********************************************************************

 Alpha  occ. eigenvalues --  -11.02419 -11.02419 -11.02413 -11.02400 -11.02400
 Alpha  occ. eigenvalues --  -11.02391  -1.20184  -1.07388  -1.07384  -0.86818
 Alpha  occ. eigenvalues --   -0.86816  -0.71832  -0.68632  -0.67845  -0.58936
 Alpha  occ. eigenvalues --   -0.58933  -0.57574  -0.55076  -0.55071  -0.45429
 Alpha  occ. eigenvalues --   -0.45426  -0.38649  -0.38647  -0.26511   0.17787
 Alpha virt. eigenvalues --    0.50418   0.50422   0.60378   0.60595   0.60600
 Alpha virt. eigenvalues --    0.64771   0.64774   0.64941   0.85889   0.85893
 Alpha virt. eigenvalues --    0.93345   0.93351   1.05329   1.05334   1.06141
 Alpha virt. eigenvalues --    1.06848   1.27911
  Beta  occ. eigenvalues --  -11.02104 -11.02104 -11.02095 -11.02083 -11.02083
  Beta  occ. eigenvalues --  -11.02068  -1.17157  -1.04431  -1.04428  -0.83926
  Beta  occ. eigenvalues --   -0.83924  -0.68850  -0.64584  -0.62903  -0.57192
  Beta  occ. eigenvalues --   -0.53514  -0.53510  -0.52432  -0.52429  -0.43529
  Beta  occ. eigenvalues --   -0.43526  -0.27910  -0.27907
  Beta virt. eigenvalues --    0.05034   0.47054   0.60563   0.60566   0.63563
  Beta virt. eigenvalues --    0.64419   0.64425   0.66543   0.66546   0.68918
  Beta virt. eigenvalues --    0.87548   0.87551   0.95149   0.95155   1.07269
  Beta virt. eigenvalues --    1.07893   1.10922   1.10928   1.33853
          Condensed to atoms (all electrons):
              1          2          3          4          5          6
     1  C    4.901119   0.416995  -0.020243  -0.004520  -0.020237   0.417004
     2  C    0.416995   4.901140   0.417021  -0.020237  -0.004522  -0.020249
     3  C   -0.020243   0.417021   4.901125   0.416989  -0.020249  -0.004524
     4  C   -0.004520  -0.020237   0.416989   4.901126   0.417016  -0.020243
     5  C   -0.020237  -0.004522  -0.020249   0.417016   4.901138   0.416994
     6  C    0.417004  -0.020249  -0.004524  -0.020243   0.416994   4.901119
     7  H   -0.016497   0.001652   0.000145   0.001652  -0.016507   0.370189
     8  H    0.001651   0.000145   0.001653  -0.016504   0.370181  -0.016495
     9  H    0.000145   0.001651  -0.016497   0.370188  -0.016496   0.001652
    10  H    0.001652  -0.016505   0.370188  -0.016499   0.001652   0.000145
    11  H   -0.016505   0.370182  -0.016494   0.001651   0.000145   0.001653
    12  H    0.370186  -0.016497   0.001652   0.000145   0.001651  -0.016495
    13  Bq   0.000000   0.000000   0.000000   0.000000   0.000000   0.000000
    14  Bq   0.000000   0.000000   0.000000   0.000000   0.000000   0.000000
    15  H    0.296318  -0.080257  -0.005742  -0.001450  -0.005738  -0.080263
    16  H   -0.080258   0.296300  -0.080274  -0.005739  -0.001451  -0.005744
    17  H   -0.005740  -0.080267   0.296297  -0.080243  -0.005743  -0.001452
    18  H   -0.001451  -0.005740  -0.080245   0.296306  -0.080278  -0.005741
    19  H   -0.005739  -0.001451  -0.005743  -0.080277   0.296306  -0.080253
    20  H   -0.080261  -0.005742  -0.001452  -0.005741  -0.080246   0.296313
    21  Bq   0.000000   0.000000   0.000000   0.000000   0.000000   0.000000
    22  Bq   0.000000   0.000000   0.000000   0.000000   0.000000   0.000000
    23  Bq   0.000000   0.000000   0.000000   0.000000   0.000000   0.000000
    24  Bq   0.000000   0.000000   0.000000   0.000000   0.000000   0.000000
    25  Bq   0.000000   0.000000   0.000000   0.000000   0.000000   0.000000
    26  Bq   0.000000   0.000000   0.000000   0.000000   0.000000   0.000000
              7          8          9         10         11         12
     1  C   -0.016497   0.001651   0.000145   0.001652  -0.016505   0.370186
     2  C    0.001652   0.000145   0.001651  -0.016505   0.370182  -0.016497
     3  C    0.000145   0.001653  -0.016497   0.370188  -0.016494   0.001652
     4  C    0.001652  -0.016504   0.370188  -0.016499   0.001651   0.000145
     5  C   -0.016507   0.370181  -0.016496   0.001652   0.000145   0.001651
     6  C    0.370189  -0.016495   0.001652   0.000145   0.001653  -0.016495
     7  H    0.661585  -0.000614   0.000012   0.000012   0.000012  -0.000615
     8  H   -0.000614   0.661596  -0.000615   0.000012   0.000012   0.000012
     9  H    0.000012  -0.000615   0.661570  -0.000613   0.000012   0.000012
    10  H    0.000012   0.000012  -0.000613   0.661588  -0.000615   0.000012
    11  H    0.000012   0.000012   0.000012  -0.000615   0.661597  -0.000614
    12  H   -0.000615   0.000012   0.000012   0.000012  -0.000614   0.661571
    13  Bq   0.000000   0.000000   0.000000   0.000000   0.000000   0.000000
    14  Bq   0.000000   0.000000   0.000000   0.000000   0.000000   0.000000
    15  H   -0.004795  -0.000371  -0.000200  -0.000371  -0.004799  -0.064213
    16  H   -0.000371  -0.000200  -0.000371  -0.004798  -0.064214  -0.004797
    17  H   -0.000200  -0.000372  -0.004797  -0.064208  -0.004796  -0.000371
    18  H   -0.000372  -0.004798  -0.064214  -0.004797  -0.000371  -0.000200
    19  H   -0.004798  -0.064213  -0.004796  -0.000372  -0.000200  -0.000371
    20  H   -0.064207  -0.004797  -0.000371  -0.000200  -0.000372  -0.004795
    21  Bq   0.000000   0.000000   0.000000   0.000000   0.000000   0.000000
    22  Bq   0.000000   0.000000   0.000000   0.000000   0.000000   0.000000
    23  Bq   0.000000   0.000000   0.000000   0.000000   0.000000   0.000000
    24  Bq   0.000000   0.000000   0.000000   0.000000   0.000000   0.000000
    25  Bq   0.000000   0.000000   0.000000   0.000000   0.000000   0.000000
    26  Bq   0.000000   0.000000   0.000000   0.000000   0.000000   0.000000
             13         14         15         16         17         18
     1  C    0.000000   0.000000   0.296318  -0.080258  -0.005740  -0.001451
     2  C    0.000000   0.000000  -0.080257   0.296300  -0.080267  -0.005740
     3  C    0.000000   0.000000  -0.005742  -0.080274   0.296297  -0.080245
     4  C    0.000000   0.000000  -0.001450  -0.005739  -0.080243   0.296306
     5  C    0.000000   0.000000  -0.005738  -0.001451  -0.005743  -0.080278
     6  C    0.000000   0.000000  -0.080263  -0.005744  -0.001452  -0.005741
     7  H    0.000000   0.000000  -0.004795  -0.000371  -0.000200  -0.000372
     8  H    0.000000   0.000000  -0.000371  -0.000200  -0.000372  -0.004798
     9  H    0.000000   0.000000  -0.000200  -0.000371  -0.004797  -0.064214
    10  H    0.000000   0.000000  -0.000371  -0.004798  -0.064208  -0.004797
    11  H    0.000000   0.000000  -0.004799  -0.064214  -0.004796  -0.000371
    12  H    0.000000   0.000000  -0.064213  -0.004797  -0.000371  -0.000200
    13  Bq   0.000000   0.000000   0.000000   0.000000   0.000000   0.000000
    14  Bq   0.000000   0.000000   0.000000   0.000000   0.000000   0.000000
    15  H    0.000000   0.000000   0.840613   0.008444   0.004771   0.004957
    16  H    0.000000   0.000000   0.008444   0.840641   0.008438   0.004770
    17  H    0.000000   0.000000   0.004771   0.008438   0.840611   0.008449
    18  H    0.000000   0.000000   0.004957   0.004770   0.008449   0.840623
    19  H    0.000000   0.000000   0.004770   0.004959   0.004771   0.008436
    20  H    0.000000   0.000000   0.008432   0.004771   0.004959   0.004770
    21  Bq   0.000000   0.000000   0.000000   0.000000   0.000000   0.000000
    22  Bq   0.000000   0.000000   0.000000   0.000000   0.000000   0.000000
    23  Bq   0.000000   0.000000   0.000000   0.000000   0.000000   0.000000
    24  Bq   0.000000   0.000000   0.000000   0.000000   0.000000   0.000000
    25  Bq   0.000000   0.000000   0.000000   0.000000   0.000000   0.000000
    26  Bq   0.000000   0.000000   0.000000   0.000000   0.000000   0.000000
             19         20         21         22         23         24
     1  C   -0.005739  -0.080261   0.000000   0.000000   0.000000   0.000000
     2  C   -0.001451  -0.005742   0.000000   0.000000   0.000000   0.000000
     3  C   -0.005743  -0.001452   0.000000   0.000000   0.000000   0.000000
     4  C   -0.080277  -0.005741   0.000000   0.000000   0.000000   0.000000
     5  C    0.296306  -0.080246   0.000000   0.000000   0.000000   0.000000
     6  C   -0.080253   0.296313   0.000000   0.000000   0.000000   0.000000
     7  H   -0.004798  -0.064207   0.000000   0.000000   0.000000   0.000000
     8  H   -0.064213  -0.004797   0.000000   0.000000   0.000000   0.000000
     9  H   -0.004796  -0.000371   0.000000   0.000000   0.000000   0.000000
    10  H   -0.000372  -0.000200   0.000000   0.000000   0.000000   0.000000
    11  H   -0.000200  -0.000372   0.000000   0.000000   0.000000   0.000000
    12  H   -0.000371  -0.004795   0.000000   0.000000   0.000000   0.000000
    13  Bq   0.000000   0.000000   0.000000   0.000000   0.000000   0.000000
    14  Bq   0.000000   0.000000   0.000000   0.000000   0.000000   0.000000
    15  H    0.004770   0.008432   0.000000   0.000000   0.000000   0.000000
    16  H    0.004959   0.004771   0.000000   0.000000   0.000000   0.000000
    17  H    0.004771   0.004959   0.000000   0.000000   0.000000   0.000000
    18  H    0.008436   0.004770   0.000000   0.000000   0.000000   0.000000
    19  H    0.840635   0.008442   0.000000   0.000000   0.000000   0.000000
    20  H    0.008442   0.840600   0.000000   0.000000   0.000000   0.000000
    21  Bq   0.000000   0.000000   0.000000   0.000000   0.000000   0.000000
    22  Bq   0.000000   0.000000   0.000000   0.000000   0.000000   0.000000
    23  Bq   0.000000   0.000000   0.000000   0.000000   0.000000   0.000000
    24  Bq   0.000000   0.000000   0.000000   0.000000   0.000000   0.000000
    25  Bq   0.000000   0.000000   0.000000   0.000000   0.000000   0.000000
    26  Bq   0.000000   0.000000   0.000000   0.000000   0.000000   0.000000
             25         26
     1  C    0.000000   0.000000
     2  C    0.000000   0.000000
     3  C    0.000000   0.000000
     4  C    0.000000   0.000000
     5  C    0.000000   0.000000
     6  C    0.000000   0.000000
     7  H    0.000000   0.000000
     8  H    0.000000   0.000000
     9  H    0.000000   0.000000
    10  H    0.000000   0.000000
    11  H    0.000000   0.000000
    12  H    0.000000   0.000000
    13  Bq   0.000000   0.000000
    14  Bq   0.000000   0.000000
    15  H    0.000000   0.000000
    16  H    0.000000   0.000000
    17  H    0.000000   0.000000
    18  H    0.000000   0.000000
    19  H    0.000000   0.000000
    20  H    0.000000   0.000000
    21  Bq   0.000000   0.000000
    22  Bq   0.000000   0.000000
    23  Bq   0.000000   0.000000
    24  Bq   0.000000   0.000000
    25  Bq   0.000000   0.000000
    26  Bq   0.000000   0.000000
 Mulliken atomic charges:
              1
     1  C   -0.153619
     2  C   -0.153618
     3  C   -0.153607
     4  C   -0.153619
     5  C   -0.153617
     6  C   -0.153610
     7  H    0.073718
     8  H    0.073716
     9  H    0.073729
    10  H    0.073716
    11  H    0.073716
    12  H    0.073728
    13  Bq   0.000000
    14  Bq   0.000000
    15  H    0.079896
    16  H    0.079894
    17  H    0.079893
    18  H    0.079895
    19  H    0.079894
    20  H    0.079895
    21  Bq   0.000000
    22  Bq   0.000000
    23  Bq   0.000000
    24  Bq   0.000000
    25  Bq   0.000000
    26  Bq   0.000000
 Sum of Mulliken atomic charges =   0.00000
 Mulliken charges with hydrogens summed into heavy atoms:
              1
     1  C    0.000005
     2  C   -0.000007
     3  C    0.000002
     4  C    0.000005
     5  C   -0.000007
     6  C    0.000002
    13  Bq   0.000000
    14  Bq   0.000000
    21  Bq   0.000000
    22  Bq   0.000000
    23  Bq   0.000000
    24  Bq   0.000000
    25  Bq   0.000000
    26  Bq   0.000000
 Sum of Mulliken charges with hydrogens summed into heavy atoms =   0.00000
          Atomic-Atomic Spin Densities.
              1          2          3          4          5          6
     1  C    0.171250   0.014752   0.010252   0.001407   0.010249   0.014752
     2  C    0.014752   0.171286   0.014756   0.010249   0.001408   0.010254
     3  C    0.010252   0.014756   0.171256   0.014750   0.010255   0.001410
     4  C    0.001407   0.010249   0.014750   0.171270   0.014756   0.010252
     5  C    0.010249   0.001408   0.010255   0.014756   0.171278   0.014750
     6  C    0.014752   0.010254   0.001410   0.010252   0.014750   0.171229
     7  H    0.003158   0.000214   0.000221   0.000214   0.003155  -0.002066
     8  H    0.000213   0.000221   0.000214   0.003158  -0.002072   0.003158
     9  H    0.000220   0.000213   0.003158  -0.002070   0.003159   0.000214
    10  H    0.000213   0.003157  -0.002067   0.003157   0.000214   0.000221
    11  H    0.003157  -0.002072   0.003159   0.000213   0.000221   0.000214
    12  H   -0.002071   0.003157   0.000214   0.000220   0.000213   0.003158
    13  Bq   0.000000   0.000000   0.000000   0.000000   0.000000   0.000000
    14  Bq   0.000000   0.000000   0.000000   0.000000   0.000000   0.000000
    15  H   -0.032813  -0.048220  -0.002341  -0.004343  -0.002339  -0.048220
    16  H   -0.048221  -0.032825  -0.048232  -0.002340  -0.004345  -0.002342
    17  H   -0.002340  -0.048224  -0.032827  -0.048215  -0.002341  -0.004346
    18  H   -0.004343  -0.002340  -0.048217  -0.032818  -0.048232  -0.002341
    19  H   -0.002340  -0.004345  -0.002342  -0.048229  -0.032822  -0.048219
    20  H   -0.048218  -0.002341  -0.004346  -0.002340  -0.048210  -0.032820
    21  Bq   0.000000   0.000000   0.000000   0.000000   0.000000   0.000000
    22  Bq   0.000000   0.000000   0.000000   0.000000   0.000000   0.000000
    23  Bq   0.000000   0.000000   0.000000   0.000000   0.000000   0.000000
    24  Bq   0.000000   0.000000   0.000000   0.000000   0.000000   0.000000
    25  Bq   0.000000   0.000000   0.000000   0.000000   0.000000   0.000000
    26  Bq   0.000000   0.000000   0.000000   0.000000   0.000000   0.000000
              7          8          9         10         11         12
     1  C    0.003158   0.000213   0.000220   0.000213   0.003157  -0.002071
     2  C    0.000214   0.000221   0.000213   0.003157  -0.002072   0.003157
     3  C    0.000221   0.000214   0.003158  -0.002067   0.003159   0.000214
     4  C    0.000214   0.003158  -0.002070   0.003157   0.000213   0.000220
     5  C    0.003155  -0.002072   0.003159   0.000214   0.000221   0.000213
     6  C   -0.002066   0.003158   0.000214   0.000221   0.000214   0.003158
     7  H    0.118174   0.001626   0.000076   0.000004   0.000076   0.001625
     8  H    0.001626   0.118201   0.001626   0.000076   0.000004   0.000076
     9  H    0.000076   0.001626   0.118193   0.001626   0.000076   0.000004
    10  H    0.000004   0.000076   0.001626   0.118183   0.001626   0.000076
    11  H    0.000076   0.000004   0.000076   0.001626   0.118205   0.001626
    12  H    0.001625   0.000076   0.000004   0.000076   0.001626   0.118191
    13  Bq   0.000000   0.000000   0.000000   0.000000   0.000000   0.000000
    14  Bq   0.000000   0.000000   0.000000   0.000000   0.000000   0.000000
    15  H   -0.002981  -0.000730  -0.000072  -0.000730  -0.002983  -0.045481
    16  H   -0.000730  -0.000073  -0.000730  -0.002983  -0.045486  -0.002982
    17  H   -0.000073  -0.000731  -0.002982  -0.045479  -0.002982  -0.000730
    18  H   -0.000731  -0.002983  -0.045483  -0.002982  -0.000730  -0.000072
    19  H   -0.002983  -0.045484  -0.002982  -0.000731  -0.000073  -0.000730
    20  H   -0.045475  -0.002982  -0.000730  -0.000073  -0.000731  -0.002981
    21  Bq   0.000000   0.000000   0.000000   0.000000   0.000000   0.000000
    22  Bq   0.000000   0.000000   0.000000   0.000000   0.000000   0.000000
    23  Bq   0.000000   0.000000   0.000000   0.000000   0.000000   0.000000
    24  Bq   0.000000   0.000000   0.000000   0.000000   0.000000   0.000000
    25  Bq   0.000000   0.000000   0.000000   0.000000   0.000000   0.000000
    26  Bq   0.000000   0.000000   0.000000   0.000000   0.000000   0.000000
             13         14         15         16         17         18
     1  C    0.000000   0.000000  -0.032813  -0.048221  -0.002340  -0.004343
     2  C    0.000000   0.000000  -0.048220  -0.032825  -0.048224  -0.002340
     3  C    0.000000   0.000000  -0.002341  -0.048232  -0.032827  -0.048217
     4  C    0.000000   0.000000  -0.004343  -0.002340  -0.048215  -0.032818
     5  C    0.000000   0.000000  -0.002339  -0.004345  -0.002341  -0.048232
     6  C    0.000000   0.000000  -0.048220  -0.002342  -0.004346  -0.002341
     7  H    0.000000   0.000000  -0.002981  -0.000730  -0.000073  -0.000731
     8  H    0.000000   0.000000  -0.000730  -0.000073  -0.000731  -0.002983
     9  H    0.000000   0.000000  -0.000072  -0.000730  -0.002982  -0.045483
    10  H    0.000000   0.000000  -0.000730  -0.002983  -0.045479  -0.002982
    11  H    0.000000   0.000000  -0.002983  -0.045486  -0.002982  -0.000730
    12  H    0.000000   0.000000  -0.045481  -0.002982  -0.000730  -0.000072
    13  Bq   0.000000   0.000000   0.000000   0.000000   0.000000   0.000000
    14  Bq   0.000000   0.000000   0.000000   0.000000   0.000000   0.000000
    15  H    0.000000   0.000000   0.301661   0.017953   0.011344   0.001536
    16  H    0.000000   0.000000   0.017953   0.301711   0.017955   0.011343
    17  H    0.000000   0.000000   0.011344   0.017955   0.301676   0.017950
    18  H    0.000000   0.000000   0.001536   0.011343   0.017950   0.301687
    19  H    0.000000   0.000000   0.011342   0.001536   0.011347   0.017955
    20  H    0.000000   0.000000   0.017949   0.011346   0.001536   0.011344
    21  Bq   0.000000   0.000000   0.000000   0.000000   0.000000   0.000000
    22  Bq   0.000000   0.000000   0.000000   0.000000   0.000000   0.000000
    23  Bq   0.000000   0.000000   0.000000   0.000000   0.000000   0.000000
    24  Bq   0.000000   0.000000   0.000000   0.000000   0.000000   0.000000
    25  Bq   0.000000   0.000000   0.000000   0.000000   0.000000   0.000000
    26  Bq   0.000000   0.000000   0.000000   0.000000   0.000000   0.000000
             19         20         21         22         23         24
     1  C   -0.002340  -0.048218   0.000000   0.000000   0.000000   0.000000
     2  C   -0.004345  -0.002341   0.000000   0.000000   0.000000   0.000000
     3  C   -0.002342  -0.004346   0.000000   0.000000   0.000000   0.000000
     4  C   -0.048229  -0.002340   0.000000   0.000000   0.000000   0.000000
     5  C   -0.032822  -0.048210   0.000000   0.000000   0.000000   0.000000
     6  C   -0.048219  -0.032820   0.000000   0.000000   0.000000   0.000000
     7  H   -0.002983  -0.045475   0.000000   0.000000   0.000000   0.000000
     8  H   -0.045484  -0.002982   0.000000   0.000000   0.000000   0.000000
     9  H   -0.002982  -0.000730   0.000000   0.000000   0.000000   0.000000
    10  H   -0.000731  -0.000073   0.000000   0.000000   0.000000   0.000000
    11  H   -0.000073  -0.000731   0.000000   0.000000   0.000000   0.000000
    12  H   -0.000730  -0.002981   0.000000   0.000000   0.000000   0.000000
    13  Bq   0.000000   0.000000   0.000000   0.000000   0.000000   0.000000
    14  Bq   0.000000   0.000000   0.000000   0.000000   0.000000   0.000000
    15  H    0.011342   0.017949   0.000000   0.000000   0.000000   0.000000
    16  H    0.001536   0.011346   0.000000   0.000000   0.000000   0.000000
    17  H    0.011347   0.001536   0.000000   0.000000   0.000000   0.000000
    18  H    0.017955   0.011344   0.000000   0.000000   0.000000   0.000000
    19  H    0.301694   0.017950   0.000000   0.000000   0.000000   0.000000
    20  H    0.017950   0.301640   0.000000   0.000000   0.000000   0.000000
    21  Bq   0.000000   0.000000   0.000000   0.000000   0.000000   0.000000
    22  Bq   0.000000   0.000000   0.000000   0.000000   0.000000   0.000000
    23  Bq   0.000000   0.000000   0.000000   0.000000   0.000000   0.000000
    24  Bq   0.000000   0.000000   0.000000   0.000000   0.000000   0.000000
    25  Bq   0.000000   0.000000   0.000000   0.000000   0.000000   0.000000
    26  Bq   0.000000   0.000000   0.000000   0.000000   0.000000   0.000000
             25         26
     1  C    0.000000   0.000000
     2  C    0.000000   0.000000
     3  C    0.000000   0.000000
     4  C    0.000000   0.000000
     5  C    0.000000   0.000000
     6  C    0.000000   0.000000
     7  H    0.000000   0.000000
     8  H    0.000000   0.000000
     9  H    0.000000   0.000000
    10  H    0.000000   0.000000
    11  H    0.000000   0.000000
    12  H    0.000000   0.000000
    13  Bq   0.000000   0.000000
    14  Bq   0.000000   0.000000
    15  H    0.000000   0.000000
    16  H    0.000000   0.000000
    17  H    0.000000   0.000000
    18  H    0.000000   0.000000
    19  H    0.000000   0.000000
    20  H    0.000000   0.000000
    21  Bq   0.000000   0.000000
    22  Bq   0.000000   0.000000
    23  Bq   0.000000   0.000000
    24  Bq   0.000000   0.000000
    25  Bq   0.000000   0.000000
    26  Bq   0.000000   0.000000
 Mulliken atomic spin densities:
              1
     1  C    0.089278
     2  C    0.089301
     3  C    0.089272
     4  C    0.089291
     5  C    0.089295
     6  C    0.089256
     7  H    0.073503
     8  H    0.073519
     9  H    0.073513
    10  H    0.073508
    11  H    0.073521
    12  H    0.073513
    13  Bq   0.000000
    14  Bq   0.000000
    15  H    0.170529
    16  H    0.170555
    17  H    0.170538
    18  H    0.170543
    19  H    0.170546
    20  H    0.170518
    21  Bq   0.000000
    22  Bq   0.000000
    23  Bq   0.000000
    24  Bq   0.000000
    25  Bq   0.000000
    26  Bq   0.000000
 Sum of Mulliken atomic spin densities =   2.00000
 Electronic spatial extent (au):  <R**2>=            866.9490
 Charge=              0.0000 electrons
 Dipole moment (field-independent basis, Debye):
    X=              0.0000    Y=             -2.0403    Z=              0.0000  Tot=              2.0403
 Quadrupole moment (field-independent basis, Debye-Ang):
   XX=            -36.8332   YY=            -39.1238   ZZ=            -36.8341
   XY=             -2.4635   XZ=              0.0002   YZ=             -1.4224
 Traceless Quadrupole moment (field-independent basis, Debye-Ang):
   XX=              0.7639   YY=             -1.5268   ZZ=              0.7629
   XY=             -2.4635   XZ=              0.0002   YZ=             -1.4224
 Octapole moment (field-independent basis, Debye-Ang**2):
  XXX=           -133.4168  YYY=             13.1456  ZZZ=            -77.0374  XYY=            -47.2379
  XXY=             -1.8221  XXZ=            -25.6781  XZZ=            -44.4729  YZZ=              0.1615
  YYZ=            -27.2754  XYZ=             -1.7174
 Hexadecapole moment (field-independent basis, Debye-Ang**3):
 XXXX=           -621.2950 YYYY=            -60.1301 ZZZZ=           -406.5032 XXXY=              0.5823
 XXXZ=            -93.0126 YYYX=             15.8720 YYYZ=              9.1646 ZZZX=            -93.0177
 ZZZY=              1.7205 XXYY=           -121.7730 XXZZ=           -171.2997 YYZZ=            -83.7468
 XXYZ=             -1.2704 YYXZ=            -32.9334 ZZXY=              0.1950
 N-N= 2.761851502337D+02 E-N=-1.621444851242D+03  KE= 3.471008706930D+02
                          Isotropic Fermi Contact Couplings
        Atom                 a.u.       MegaHertz       Gauss      10(-4) cm-1
     1  C(13)             -0.00032      -0.18233      -0.06506      -0.06082
     2  C(13)             -0.00032      -0.18070      -0.06448      -0.06028
     3  C(13)             -0.00032      -0.17725      -0.06325      -0.05913
     4  C(13)             -0.00032      -0.18163      -0.06481      -0.06058
     5  C(13)             -0.00032      -0.18068      -0.06447      -0.06027
     6  C(13)             -0.00032      -0.17796      -0.06350      -0.05936
     7  H(1)               0.03997      89.32731      31.87420      29.79638
     8  H(1)               0.03998      89.34751      31.88141      29.80312
     9  H(1)               0.03998      89.34177      31.87936      29.80121
    10  H(1)               0.03997      89.33382      31.87653      29.79856
    11  H(1)               0.03998      89.35012      31.88234      29.80399
    12  H(1)               0.03997      89.34060      31.87895      29.80082
    15  H(1)               0.09734     217.55475      77.62894      72.56845
    16  H(1)               0.09736     217.58753      77.64064      72.57939
    17  H(1)               0.09735     217.56457      77.63245      72.57173
    18  H(1)               0.09735     217.57260      77.63531      72.57441
    19  H(1)               0.09735     217.57657      77.63673      72.57573
    20  H(1)               0.09734     217.54004      77.62369      72.56355
 --------------------------------------------------------
       Center         ----  Spin Dipole Couplings  ----
                      3XX-RR        3YY-RR        3ZZ-RR
 --------------------------------------------------------
     1   Atom       -0.088682      0.187061     -0.098379
     2   Atom       -0.088700      0.187093     -0.098393
     3   Atom       -0.103218      0.187041     -0.083823
     4   Atom       -0.088695      0.187081     -0.098385
     5   Atom       -0.088707      0.187084     -0.098376
     6   Atom       -0.103204      0.187011     -0.083807
     7   Atom       -0.012223     -0.003643      0.015866
     8   Atom        0.008845     -0.003643     -0.005202
     9   Atom        0.008842     -0.003643     -0.005199
    10   Atom       -0.012225     -0.003643      0.015868
    11   Atom        0.008848     -0.003643     -0.005205
    12   Atom        0.008842     -0.003642     -0.005200
    13   Atom        0.015904     -0.031805      0.015901
    14   Atom        0.017384     -0.034767      0.017383
    15   Atom       -0.009387      0.017275     -0.007887
    16   Atom       -0.009388      0.017279     -0.007891
    17   Atom       -0.007137      0.017274     -0.010137
    18   Atom       -0.009389      0.017278     -0.007889
    19   Atom       -0.009391      0.017278     -0.007887
    20   Atom       -0.007135      0.017270     -0.010134
    21   Atom        0.000182     -0.000038     -0.000144
    22   Atom        0.000363     -0.000077     -0.000286
    23   Atom       -0.000001      0.000803     -0.000803
    24   Atom       -0.000209      0.000314     -0.000105
    25   Atom       -0.000544      0.000854     -0.000310
    26   Atom        0.000477     -0.000565      0.000088
 --------------------------------------------------------
                        XY            XZ            YZ
 --------------------------------------------------------
     1   Atom       -0.112794      0.008394     -0.065117
     2   Atom       -0.112805     -0.008393      0.065141
     3   Atom        0.000015      0.000006      0.130260
     4   Atom        0.112797      0.008396      0.065129
     5   Atom        0.112786     -0.008400     -0.065165
     6   Atom       -0.000001     -0.000001     -0.130248
     7   Atom        0.000000     -0.000004     -0.005034
     8   Atom        0.004358     -0.012166     -0.002517
     9   Atom        0.004358      0.012169      0.002516
    10   Atom        0.000000     -0.000002      0.005034
    11   Atom       -0.004358     -0.012165      0.002517
    12   Atom       -0.004358      0.012167     -0.002516
    13   Atom        0.000000     -0.000004     -0.000001
    14   Atom        0.000000     -0.000005      0.000001
    15   Atom        0.015024     -0.001296      0.008674
    16   Atom        0.015024      0.001299     -0.008675
    17   Atom        0.000001      0.000002     -0.017351
    18   Atom       -0.015026     -0.001297     -0.008671
    19   Atom       -0.015025      0.001296      0.008675
    20   Atom        0.000002      0.000001      0.017350
    21   Atom       -0.000571     -0.000491      0.000412
    22   Atom       -0.001146     -0.000981      0.000830
    23   Atom       -0.002146     -0.001234      0.001576
    24   Atom        0.000574      0.000407      0.000653
    25   Atom        0.001110      0.000688      0.001324
    26   Atom        0.001188      0.001561      0.001057
 --------------------------------------------------------


 ---------------------------------------------------------------------------------
              Anisotropic Spin Dipole Couplings in Principal Axis System
 ---------------------------------------------------------------------------------

       Atom             a.u.   MegaHertz   Gauss  10(-4) cm-1        Axes

              Baa    -0.1363   -18.290    -6.526    -6.101  0.8033  0.3736  0.4638
     1 C(13)  Bbb    -0.1032   -13.852    -4.943    -4.620 -0.5000  0.0000  0.8660
              Bcc     0.2395    32.141    11.469    10.721 -0.3236  0.9276 -0.1868
 
              Baa    -0.1363   -18.293    -6.527    -6.102  0.8032  0.3736 -0.4639
     2 C(13)  Bbb    -0.1032   -13.854    -4.943    -4.621  0.5001  0.0000  0.8660
              Bcc     0.2396    32.146    11.471    10.723 -0.3235  0.9276  0.1868
 
              Baa    -0.1363   -18.290    -6.526    -6.101  0.0000 -0.3737  0.9276
     3 C(13)  Bbb    -0.1032   -13.851    -4.942    -4.620  1.0000  0.0000  0.0000
              Bcc     0.2395    32.141    11.469    10.721  0.0000  0.9276  0.3737
 
              Baa    -0.1363   -18.291    -6.527    -6.101  0.8033 -0.3736  0.4638
     4 C(13)  Bbb    -0.1032   -13.853    -4.943    -4.621 -0.5000  0.0000  0.8660
              Bcc     0.2395    32.144    11.470    10.722  0.3235  0.9276  0.1868
 
              Baa    -0.1363   -18.292    -6.527    -6.102  0.8033 -0.3736 -0.4639
     5 C(13)  Bbb    -0.1032   -13.853    -4.943    -4.621  0.5001  0.0001  0.8660
              Bcc     0.2395    32.145    11.470    10.722  0.3235  0.9276 -0.1869
 
              Baa    -0.1363   -18.288    -6.525    -6.100  0.0000  0.3737  0.9276
     6 C(13)  Bbb    -0.1032   -13.849    -4.942    -4.620  1.0000  0.0000  0.0000
              Bcc     0.2395    32.137    11.467    10.720  0.0000  0.9276 -0.3737
 
              Baa    -0.0122    -6.522    -2.327    -2.175  1.0000  0.0002  0.0002
     7 H(1)   Bbb    -0.0049    -2.596    -0.926    -0.866 -0.0002  0.9718  0.2360
              Bcc     0.0171     9.118     3.253     3.041 -0.0001 -0.2360  0.9718
 
              Baa    -0.0122    -6.523    -2.328    -2.176  0.5000  0.0001  0.8660
     8 H(1)   Bbb    -0.0049    -2.595    -0.926    -0.866 -0.2043  0.9718  0.1178
              Bcc     0.0171     9.119     3.254     3.042  0.8416  0.2359 -0.4859
 
              Baa    -0.0122    -6.524    -2.328    -2.176 -0.5002  0.0001  0.8659
     9 H(1)   Bbb    -0.0049    -2.595    -0.926    -0.866 -0.2042  0.9718 -0.1181
              Bcc     0.0171     9.119     3.254     3.042  0.8415  0.2359  0.4860
 
              Baa    -0.0122    -6.522    -2.327    -2.176  1.0000 -0.0001  0.0001
    10 H(1)   Bbb    -0.0049    -2.596    -0.926    -0.866  0.0001  0.9718 -0.2359
              Bcc     0.0171     9.118     3.254     3.042 -0.0001  0.2359  0.9718
 
              Baa    -0.0122    -6.524    -2.328    -2.176  0.4999 -0.0001  0.8661
    11 H(1)   Bbb    -0.0049    -2.595    -0.926    -0.866  0.2043  0.9718 -0.1178
              Bcc     0.0171     9.119     3.254     3.042  0.8416 -0.2359 -0.4858
 
              Baa    -0.0122    -6.523    -2.328    -2.176 -0.5001  0.0000  0.8660
    12 H(1)   Bbb    -0.0049    -2.595    -0.926    -0.866  0.2042  0.9718  0.1180
              Bcc     0.0171     9.118     3.254     3.042  0.8415 -0.2359  0.4860
 
              Baa    -0.0185    -9.891    -3.529    -3.299  0.7795 -0.4360  0.4499
    15 H(1)   Bbb    -0.0071    -3.810    -1.359    -1.271 -0.4999 -0.0001  0.8661
              Bcc     0.0257    13.701     4.889     4.570  0.3775  0.9000  0.2180
 
              Baa    -0.0185    -9.893    -3.530    -3.300  0.7794 -0.4359 -0.4501
    16 H(1)   Bbb    -0.0071    -3.810    -1.359    -1.271  0.5001  0.0000  0.8660
              Bcc     0.0257    13.703     4.889     4.571  0.3775  0.9000 -0.2180
 
              Baa    -0.0185    -9.894    -3.530    -3.300 -0.0002  0.4360  0.9000
    17 H(1)   Bbb    -0.0071    -3.808    -1.359    -1.270  1.0000  0.0001  0.0002
              Bcc     0.0257    13.701     4.889     4.570  0.0000  0.9000 -0.4360
 
              Baa    -0.0185    -9.892    -3.530    -3.300  0.7795  0.4359  0.4498
    18 H(1)   Bbb    -0.0071    -3.810    -1.360    -1.271 -0.4998  0.0000  0.8661
              Bcc     0.0257    13.702     4.889     4.570 -0.3776  0.9000 -0.2179
 
              Baa    -0.0185    -9.892    -3.530    -3.300  0.7795  0.4359 -0.4498
    19 H(1)   Bbb    -0.0071    -3.810    -1.359    -1.271  0.4998 -0.0002  0.8661
              Bcc     0.0257    13.702     4.889     4.571 -0.3775  0.9000  0.2180
 
              Baa    -0.0185    -9.892    -3.530    -3.300  0.0000 -0.4360  0.8999
    20 H(1)   Bbb    -0.0071    -3.807    -1.358    -1.270  1.0000 -0.0001  0.0000
              Bcc     0.0257    13.699     4.888     4.570  0.0001  0.8999  0.4360
 

 ---------------------------------------------------------------------------------

 1|1|UNPC-LAPTOP-B2GCDIS0|SP|UHF|STO-3G|C6H12(3)|USER|21-Dec-2020|0||# 
 HF/STO-3G NMR=GIAO INTEGRAL=(GRID=ULTRAFINE) CPHF=(GRID=FINE)||-------
 ------------------------- # Center 1||0,3|C,0,0.,0.,0.|C,0,0.,0.,1.394
 15|C,0,1.2073,0.,2.09123|C,0,2.41482,0.,1.39426|C,0,2.41482,0.,0.00021
 |C,0,1.20743,0.,-0.69692|H,0,1.20767,0.,-1.78249|H,0,3.35498,0.,-0.542
 54|H,0,3.35486,0.,1.93718|H,0,1.2072,0.00002,3.1768|H,0,-0.94022,0.,1.
 93679|H,0,-0.94011,0.,-0.54281|Bq,0,1.20739,0.,0.69715|Bq,0,1.2074,-1.
 ,0.69715|H,0,-0.07548,-0.9962,-0.04358|H,0,-0.07548,-0.9962,1.43772|H,
 0,1.2073,-0.9962,2.17839|H,0,2.4903,-0.9962,1.43783|H,0,2.4903,-0.9962
 ,-0.04336|H,0,1.20743,-0.9962,-0.78408|Bq,0,6.94112,-4.99998,-3.44103|
 Bq,0,5.79438,-3.99998,-2.61339|Bq,0,-2.23284,2.99999,3.18006|Bq,0,5.,5
 .,5.|Bq,0,4.,4.,4.|Bq,0,-3.,-3.,-3.||Version=IA32W-G09RevA.02|HF=-230.
 3544394|S2=2.005719|S2-1=0.|S2A=2.000022|RMSD=1.527e-009|Dipole=0.0000
 038,-0.8027286,-0.000008|Quadrupole=0.5679199,-1.1351104,0.5671905,-1.
 8315402,0.0001175,-1.0574878|PG=C01 [X(C6H12)]||@


 THE ONLY DIFFERENCE BETWEEN ECCENTRICS AND JOGGERS
 IS THAT JOGGERS WEAR SWEATBANDS WHEN THEY RUN IN THE RAIN.
 Job cpu time:  0 days  0 hours  0 minutes 13.0 seconds.
 File lengths (MBytes):  RWF=      5 Int=      0 D2E=      0 Chk=      1 Scr=      1
 Normal termination of Gaussian 09 at Mon Dec 21 10:53:29 2020.
