 Entering Gaussian System, Link 0=C:/Users/user/Documents/2.0Aroma/G09W/G09W/g09
 Input=input/benz-center1.in
 Output=output/benz-center1.log
 Initial command:
 C:/Users/user/Documents/2.0Aroma/G09W/G09W/\l1.exe .\gxx.inp output/benz-center1.log /scrdir=.\
 Entering Link 1 = C:/Users/user/Documents/2.0Aroma/G09W/G09W/\l1.exe PID=      9956.
  
 Copyright (c) 1988,1990,1992,1993,1995,1998,2003,2009, Gaussian, Inc.
                  All Rights Reserved.
  
 This is part of the Gaussian(R) 09 program.  It is based on
 the Gaussian(R) 03 system (copyright 2003, Gaussian, Inc.),
 the Gaussian(R) 98 system (copyright 1998, Gaussian, Inc.),
 the Gaussian(R) 94 system (copyright 1995, Gaussian, Inc.),
 the Gaussian 92(TM) system (copyright 1992, Gaussian, Inc.),
 the Gaussian 90(TM) system (copyright 1990, Gaussian, Inc.),
 the Gaussian 88(TM) system (copyright 1988, Gaussian, Inc.),
 the Gaussian 86(TM) system (copyright 1986, Carnegie Mellon
 University), and the Gaussian 82(TM) system (copyright 1983,
 Carnegie Mellon University). Gaussian is a federally registered
 trademark of Gaussian, Inc.
  
 This software contains proprietary and confidential information,
 including trade secrets, belonging to Gaussian, Inc.
  
 This software is provided under written license and may be
 used, copied, transmitted, or stored only in accord with that
 written license.
  
 The following legend is applicable only to US Government
 contracts under FAR:
  
                    RESTRICTED RIGHTS LEGEND
  
 Use, reproduction and disclosure by the US Government is
 subject to restrictions as set forth in subparagraphs (a)
 and (c) of the Commercial Computer Software - Restricted
 Rights clause in FAR 52.227-19.
  
 Gaussian, Inc.
 340 Quinnipiac St., Bldg. 40, Wallingford CT 06492
  
  
 ---------------------------------------------------------------
 Warning -- This program may not be used in any manner that
 competes with the business of Gaussian, Inc. or will provide
 assistance to any competitor of Gaussian, Inc.  The licensee
 of this program is prohibited from giving any competitor of
 Gaussian, Inc. access to this program.  By using this program,
 the user acknowledges that Gaussian, Inc. is engaged in the
 business of creating and licensing software in the field of
 computational chemistry and represents and warrants to the
 licensee that it is not a competitor of Gaussian, Inc. and that
 it will not use this program in any manner prohibited above.
 ---------------------------------------------------------------
  

 Cite this work as:
 Gaussian 09, Revision A.02,
 M. J. Frisch, G. W. Trucks, H. B. Schlegel, G. E. Scuseria, 
 M. A. Robb, J. R. Cheeseman, G. Scalmani, V. Barone, B. Mennucci, 
 G. A. Petersson, H. Nakatsuji, M. Caricato, X. Li, H. P. Hratchian, 
 A. F. Izmaylov, J. Bloino, G. Zheng, J. L. Sonnenberg, M. Hada, 
 M. Ehara, K. Toyota, R. Fukuda, J. Hasegawa, M. Ishida, T. Nakajima, 
 Y. Honda, O. Kitao, H. Nakai, T. Vreven, J. A. Montgomery, Jr., 
 J. E. Peralta, F. Ogliaro, M. Bearpark, J. J. Heyd, E. Brothers, 
 K. N. Kudin, V. N. Staroverov, R. Kobayashi, J. Normand, 
 K. Raghavachari, A. Rendell, J. C. Burant, S. S. Iyengar, J. Tomasi, 
 M. Cossi, N. Rega, J. M. Millam, M. Klene, J. E. Knox, J. B. Cross, 
 V. Bakken, C. Adamo, J. Jaramillo, R. Gomperts, R. E. Stratmann, 
 O. Yazyev, A. J. Austin, R. Cammi, C. Pomelli, J. W. Ochterski, 
 R. L. Martin, K. Morokuma, V. G. Zakrzewski, G. A. Voth, 
 P. Salvador, J. J. Dannenberg, S. Dapprich, A. D. Daniels, 
 O. Farkas, J. B. Foresman, J. V. Ortiz, J. Cioslowski, 
 and D. J. Fox, Gaussian, Inc., Wallingford CT, 2009.
 
 ******************************************
 Gaussian 09:  IA32W-G09RevA.02 11-Jun-2009
                21-Dec-2020 
 ******************************************
 %NPROC=1
 Will use up to    1 processors via shared memory.
 %MEM=1024MB
 ---------------------------------------------------------------
 # HF/STO-3G NMR=GIAO INTEGRAL=(GRID=ULTRAFINE) CPHF=(GRID=FINE)
 ---------------------------------------------------------------
 1/38=1/1;
 2/12=2,17=6,18=5,40=1/2;
 3/6=3,11=9,16=1,25=1,30=1,75=-5/1,2,8,3;
 4//1;
 5/5=2,38=5,96=4/2;
 8/6=1,10=90,11=11/1;
 10/13=100,45=16,60=4/2;
 6/7=2,8=2,9=2,10=2,28=1/1;
 99/9=1/99;
 --------------------------
 --------------- # Center 1
 --------------------------
 Symbolic Z-matrix:
 Charge =  0 Multiplicity = 1
 6                    -1.30316   0.49558   0. 
 6                    -1.08072  -0.88071   0. 
 6                     0.22234  -1.37623   0.00001 
 6                     1.30318  -0.49552   0. 
 6                     1.08076   0.88067   0. 
 6                    -0.2224    1.37622   0. 
 1                    -2.31783   0.88144  -0.00001 
 1                    -1.92232  -1.56641  -0.00001 
 1                     0.39544  -2.44792  -0.00001 
 1                     2.3178   -0.88151  -0.00001 
 1                     1.92227   1.56647   0. 
 1                    -0.39536   2.44793   0.00001 
 bq                    5.        5.        5. 
 bq                    4.        4.        4. 
 bq                   -3.       -3.       -3. 
 
                          Input orientation:                          
 ---------------------------------------------------------------------
 Center     Atomic      Atomic             Coordinates (Angstroms)
 Number     Number       Type             X           Y           Z
 ---------------------------------------------------------------------
      1          6           0       -1.303160    0.495580    0.000000
      2          6           0       -1.080720   -0.880710    0.000000
      3          6           0        0.222340   -1.376230    0.000010
      4          6           0        1.303180   -0.495520    0.000000
      5          6           0        1.080760    0.880670    0.000000
      6          6           0       -0.222400    1.376220    0.000000
      7          1           0       -2.317830    0.881440   -0.000010
      8          1           0       -1.922320   -1.566410   -0.000010
      9          1           0        0.395440   -2.447920   -0.000010
     10          1           0        2.317800   -0.881510   -0.000010
     11          1           0        1.922270    1.566470    0.000000
     12          1           0       -0.395360    2.447930    0.000010
     13          0           0        5.000000    5.000000    5.000000
     14          0           0        4.000000    4.000000    4.000000
     15          0           0       -3.000000   -3.000000   -3.000000
 ---------------------------------------------------------------------
                    Distance matrix (angstroms):
                    1          2          3          4          5
     1  C    0.000000
     2  C    1.394150   0.000000
     3  C    2.414710   1.394097   0.000000
     4  C    2.788420   2.414819   1.394226   0.000000
     5  C    2.414823   2.788271   2.414639   1.394048   0.000000
     6  C    1.394119   2.414632   2.788149   2.414706   1.394201
     7  H    1.085561   2.153048   3.398461   3.873981   3.398590
     8  H    2.152943   1.085576   2.153076   3.398626   3.873847
     9  H    3.398446   2.152950   1.085580   2.153104   3.398408
    10  H    3.873981   3.398520   2.153068   1.085561   2.153032
    11  H    3.398559   3.873840   3.398418   2.152922   1.085569
    12  H    2.153084   3.398465   3.873726   3.398373   2.152959
    13  Bq   9.220609   9.826388   9.406500   8.298627   7.571613
    14  Bq   7.510291   8.101546   7.692495   6.594129   5.852536
    15  Bq   4.909007   4.144276   4.692565   5.812898   6.380611
                    6          7          8          9         10
     6  C    0.000000
     7  H    2.153052   0.000000
     8  H    3.398352   2.479596   0.000000
     9  H    3.873729   4.294936   2.479732   0.000000
    10  H    3.398523   4.959542   4.295079   2.479740   0.000000
    11  H    2.153092   4.295080   4.959416   4.294943   2.479728
    12  H    1.085577   2.479875   4.294943   4.959306   4.294928
    13  Bq   8.087351   9.773089  10.772017  10.083332   8.172298
    14  Bq   6.380665   8.101881   9.058635   8.400512   6.531387
    15  Bq   5.988853   4.952865   3.495213   4.564400   6.462734
                   11         12         13         14         15
    11  H    0.000000
    12  H    2.479593   0.000000
    13  Bq   6.801584   7.786069   0.000000
    14  Bq   5.122405   6.142315   1.732051   0.000000
    15  Bq   7.354005   6.742711  13.856406  12.124356   0.000000
 Symmetry turned off:
 Cannot cope with ghost atoms or with translation vectors.
 Stoichiometry    C6H6
 Framework group  C1[X(C6H6)]
 NUMDOF-- NAT=    12 NAtoms=    15
 Deg. of freedom     0
 Full point group                 C1      NOp   1
 Rotational constants (GHZ):      5.7069637      5.7060618      2.8532563
 Standard basis: STO-3G (5D, 7F)
 Warning:  center  13 has no basis functions!
 Warning:  center  14 has no basis functions!
 Warning:  center  15 has no basis functions!
 Integral buffers will be    262144 words long.
 Raffenetti 1 integral format.
 Two-electron integral symmetry is turned off.
    36 basis functions,   108 primitive gaussians,    36 cartesian basis functions
    21 alpha electrons       21 beta electrons
       nuclear repulsion energy       203.5338365798 Hartrees.
 NAtoms=   15 NActive=   15 NUniq=   15 SFac= 7.50D-01 NAtFMM=   80 NAOKFM=F Big=F
 One-electron integrals computed using PRISM.
 NBasis=    36 RedAO= T  NBF=    36
 NBsUse=    36 1.00D-06 NBFU=    36
 Harris functional with IExCor=  205 diagonalized for initial guess.
 ExpMin= 1.69D-01 ExpMax= 7.16D+01 ExpMxC= 7.16D+01 IAcc=3 IRadAn=         5 AccDes= 0.00D+00
 HarFok:  IExCor=  205 AccDes= 0.00D+00 IRadAn=         5 IDoV= 1
 ScaDFX=  1.000000  1.000000  1.000000  1.000000
 FoFCou: FMM=F IPFlag=           0 FMFlag=      100000 FMFlg1=           0
         NFxFlg=           0 DoJE=T BraDBF=F KetDBF=T FulRan=T
         Omega=  0.000000  0.000000  1.000000  0.000000  0.000000 ICntrl=     500 IOpCl=  0
         NMat0=    1 NMatS0=    1 NMatT0=    0 NMatD0=    1 NMtDS0=    0 NMtDT0=    0
         I1Cent=           4 NGrid=           0.
 Symmetry not used in FoFCou.
 Requested convergence on RMS density matrix=1.00D-08 within 128 cycles.
 Requested convergence on MAX density matrix=1.00D-06.
 Requested convergence on             energy=1.00D-06.
 No special actions if energy rises.
 Keep R1 ints in memory in canonical form, NReq=1044578.
 SCF Done:  E(RHF) =  -227.890926526     A.U. after   10 cycles
             Convg  =    0.7840D-09             -V/T =  2.0085
 Range of M.O.s used for correlation:     1    36
 NBasis=    36 NAE=    21 NBE=    21 NFC=     0 NFV=     0
 NROrb=     36 NOA=    21 NOB=    21 NVA=    15 NVB=    15
          Differentiating once with respect to magnetic field using GIAOs.
          Electric field/nuclear overlap derivatives assumed to be zero.
          Keep R3 ints in memory in canonical form, NReq=1022453.
 FoFCou: FMM=F IPFlag=           0 FMFlag=           0 FMFlg1=           0
         NFxFlg=           0 DoJE=F BraDBF=F KetDBF=T FulRan=T
         Omega=  0.000000  0.000000  1.000000  0.000000  0.000000 ICntrl=    6100 IOpCl=  0
         NMat0=    1 NMatS0=    1 NMatT0=    0 NMatD0=    1 NMtDS0=    0 NMtDT0=    0
         I1Cent=           7 NGrid=          15.
 Symmetry not used in FoFCou.
          There are     3 degrees of freedom in the 1st order CPHF.  IDoFFX=0.
      3 vectors produced by pass  0 Test12= 1.05D-14 3.33D-08 XBig12= 1.48D+00 5.44D-01.
 AX will form     3 AO Fock derivatives at one time.
      3 vectors produced by pass  1 Test12= 1.05D-14 3.33D-08 XBig12= 2.34D-03 2.32D-02.
      3 vectors produced by pass  2 Test12= 1.05D-14 3.33D-08 XBig12= 1.42D-05 1.32D-03.
      3 vectors produced by pass  3 Test12= 1.05D-14 3.33D-08 XBig12= 2.63D-07 2.24D-04.
      3 vectors produced by pass  4 Test12= 1.05D-14 3.33D-08 XBig12= 2.72D-09 2.00D-05.
      3 vectors produced by pass  5 Test12= 1.05D-14 3.33D-08 XBig12= 7.33D-12 1.90D-06.
      3 vectors produced by pass  6 Test12= 1.05D-14 3.33D-08 XBig12= 8.76D-14 1.45D-07.
 Inverted reduced A of dimension    21 with in-core refinement.
 Calculating GIAO nuclear magnetic shielding tensors.
 SCF GIAO Magnetic shielding tensor (ppm):
  1  C    Isotropic =   122.6992   Anisotropy =   166.3610
   XX=    38.2792   YX=    25.7759   ZX=    -0.0012
   XY=    25.7818   YY=    96.2118   ZY=     0.0003
   XZ=    -0.0012   YZ=    -0.0003   ZZ=   233.6065
   Eigenvalues:    28.4692   106.0218   233.6065
  2  C    Isotropic =   122.7010   Anisotropy =   166.3571
   XX=    59.4284   YX=   -37.9783   ZX=    -0.0016
   XY=   -37.9685   YY=    75.0689   ZY=    -0.0006
   XZ=    -0.0025   YZ=    -0.0027   ZZ=   233.6058
   Eigenvalues:    28.4783   106.0189   233.6058
  3  C    Isotropic =   122.6949   Anisotropy =   166.3630
   XX=   104.0345   YX=    12.1983   ZX=     0.0003
   XY=    12.1945   YY=    30.4466   ZY=    -0.0014
   XZ=     0.0002   YZ=    -0.0018   ZZ=   233.6036
   Eigenvalues:    28.4779   106.0032   233.6036
  4  C    Isotropic =   122.6981   Anisotropy =   166.3625
   XX=    38.2643   YX=    25.7669   ZX=     0.0016
   XY=    25.7610   YY=    96.2236   ZY=    -0.0002
   XZ=     0.0024   YZ=    -0.0018   ZZ=   233.6064
   Eigenvalues:    28.4676   106.0202   233.6064
  5  C    Isotropic =   122.7011   Anisotropy =   166.3573
   XX=    59.4078   YX=   -37.9813   ZX=     0.0003
   XY=   -37.9594   YY=    75.0894   ZY=     0.0000
   XZ=     0.0008   YZ=    -0.0001   ZZ=   233.6060
   Eigenvalues:    28.4772   106.0201   233.6060
  6  C    Isotropic =   122.6953   Anisotropy =   166.3634
   XX=   104.0277   YX=    12.2223   ZX=     0.0001
   XY=    12.2068   YY=    30.4539   ZY=    -0.0009
   XZ=    -0.0005   YZ=     0.0010   ZZ=   233.6042
   Eigenvalues:    28.4790   106.0026   233.6042
  7  H    Isotropic =    25.6030   Anisotropy =     3.6186
   XX=    26.7281   YX=     0.4895   ZX=     0.0000
   XY=     0.4905   YY=    27.8289   ZY=     0.0000
   XZ=     0.0001   YZ=     0.0000   ZZ=    22.2520
   Eigenvalues:    22.2520    26.5416    28.0154
  8  H    Isotropic =    25.6032   Anisotropy =     3.6190
   XX=    27.1300   YX=    -0.7211   ZX=     0.0000
   XY=    -0.7214   YY=    27.4286   ZY=     0.0000
   XZ=     0.0000   YZ=    -0.0001   ZZ=    22.2509
   Eigenvalues:    22.2509    26.5428    28.0158
  9  H    Isotropic =    25.6033   Anisotropy =     3.6192
   XX=    27.9788   YX=     0.2312   ZX=     0.0000
   XY=     0.2316   YY=    26.5802   ZY=     0.0000
   XZ=     0.0000   YZ=     0.0002   ZZ=    22.2508
   Eigenvalues:    22.2508    26.5429    28.0161
 10  H    Isotropic =    25.6030   Anisotropy =     3.6186
   XX=    26.7277   YX=     0.4903   ZX=     0.0000
   XY=     0.4891   YY=    27.8292   ZY=     0.0000
   XZ=     0.0000   YZ=     0.0000   ZZ=    22.2520
   Eigenvalues:    22.2520    26.5415    28.0154
 11  H    Isotropic =    25.6032   Anisotropy =     3.6191
   XX=    27.1294   YX=    -0.7222   ZX=     0.0000
   XY=    -0.7202   YY=    27.4291   ZY=     0.0000
   XZ=     0.0000   YZ=     0.0000   ZZ=    22.2510
   Eigenvalues:    22.2510    26.5426    28.0159
 12  H    Isotropic =    25.6033   Anisotropy =     3.6192
   XX=    27.9787   YX=     0.2327   ZX=     0.0000
   XY=     0.2310   YY=    26.5805   ZY=     0.0000
   XZ=     0.0000   YZ=     0.0002   ZZ=    22.2508
   Eigenvalues:    22.2508    26.5430    28.0161
 13  Bq   Isotropic =     0.0027   Anisotropy =     0.4614
   XX=    -0.0040   YX=     0.0912   ZX=     0.0906
   XY=     0.0913   YY=    -0.0040   ZY=     0.0908
   XZ=     0.2715   YZ=     0.2717   ZZ=     0.0161
   Eigenvalues:    -0.2069    -0.0952     0.3103
 14  Bq   Isotropic =     0.0085   Anisotropy =     0.9057
   XX=    -0.0127   YX=     0.1717   ZX=     0.1781
   XY=     0.1722   YY=    -0.0126   ZY=     0.1792
   XZ=     0.5341   YZ=     0.5352   ZZ=     0.0506
   Eigenvalues:    -0.4024    -0.1846     0.6123
 15  Bq   Isotropic =     0.0369   Anisotropy =     2.1639
   XX=    -0.0581   YX=     0.3729   ZX=     0.4215
   XY=     0.3757   YY=    -0.0570   ZY=     0.4308
   XZ=     1.2761   YZ=     1.2864   ZZ=     0.2257
   Eigenvalues:    -0.9370    -0.4319     1.4794
 End of Minotr Frequency-dependent properties file   721 does not exist.
 End of Minotr Frequency-dependent properties file   722 does not exist.

 **********************************************************************

            Population analysis using the SCF density.

 **********************************************************************

 Alpha  occ. eigenvalues --  -11.02914 -11.02913 -11.02911 -11.02878 -11.02877
 Alpha  occ. eigenvalues --  -11.02863  -1.09036  -0.95484  -0.95480  -0.76677
 Alpha  occ. eigenvalues --   -0.76675  -0.66203  -0.59384  -0.55352  -0.53398
 Alpha  occ. eigenvalues --   -0.53393  -0.45652  -0.43275  -0.43272  -0.28007
 Alpha  occ. eigenvalues --   -0.28004
 Alpha virt. eigenvalues --    0.26892   0.26895   0.50416   0.57804   0.64795
 Alpha virt. eigenvalues --    0.64796   0.72044   0.73466   0.73474   0.88419
 Alpha virt. eigenvalues --    0.88424   0.89741   0.89747   1.08792   1.15115
          Condensed to atoms (all electrons):
              1          2          3          4          5          6
     1  C    4.773307   0.507437  -0.030241  -0.011420  -0.030232   0.507512
     2  C    0.507437   4.773310   0.507524  -0.030232  -0.011425  -0.030249
     3  C   -0.030241   0.507524   4.773324   0.507417  -0.030249  -0.011431
     4  C   -0.011420  -0.030232   0.507417   4.773308   0.507530  -0.030242
     5  C   -0.030232  -0.011425  -0.030249   0.507530   4.773310   0.507430
     6  C    0.507512  -0.030249  -0.011431  -0.030242   0.507430   4.773323
     7  H    0.394140  -0.025487   0.001375   0.000029   0.001375  -0.025485
     8  H   -0.025496   0.394136  -0.025483   0.001375   0.000029   0.001376
     9  H    0.001375  -0.025494   0.394132  -0.025486   0.001375   0.000029
    10  H    0.000029   0.001375  -0.025487   0.394140  -0.025485   0.001375
    11  H    0.001375   0.000029   0.001376  -0.025494   0.394138  -0.025484
    12  H   -0.025484   0.001375   0.000029   0.001375  -0.025496   0.394132
    13  Bq   0.000000   0.000000   0.000000   0.000000   0.000000   0.000000
    14  Bq   0.000000   0.000000   0.000000   0.000000   0.000000   0.000000
    15  Bq   0.000000   0.000000   0.000000   0.000000   0.000000   0.000000
              7          8          9         10         11         12
     1  C    0.394140  -0.025496   0.001375   0.000029   0.001375  -0.025484
     2  C   -0.025487   0.394136  -0.025494   0.001375   0.000029   0.001375
     3  C    0.001375  -0.025483   0.394132  -0.025487   0.001376   0.000029
     4  C    0.000029   0.001375  -0.025486   0.394140  -0.025494   0.001375
     5  C    0.001375   0.000029   0.001375  -0.025485   0.394138  -0.025496
     6  C   -0.025485   0.001376   0.000029   0.001375  -0.025484   0.394132
     7  H    0.599025  -0.003609  -0.000032   0.000002  -0.000032  -0.003607
     8  H   -0.003609   0.599049  -0.003609  -0.000032   0.000002  -0.000032
     9  H   -0.000032  -0.003609   0.599059  -0.003607  -0.000032   0.000002
    10  H    0.000002  -0.000032  -0.003607   0.599026  -0.003609  -0.000032
    11  H   -0.000032   0.000002  -0.000032  -0.003609   0.599046  -0.003609
    12  H   -0.003607  -0.000032   0.000002  -0.000032  -0.003609   0.599060
    13  Bq   0.000000   0.000000   0.000000   0.000000   0.000000   0.000000
    14  Bq   0.000000   0.000000   0.000000   0.000000   0.000000   0.000000
    15  Bq   0.000000   0.000000   0.000000   0.000000   0.000000   0.000000
             13         14         15
     1  C    0.000000   0.000000   0.000000
     2  C    0.000000   0.000000   0.000000
     3  C    0.000000   0.000000   0.000000
     4  C    0.000000   0.000000   0.000000
     5  C    0.000000   0.000000   0.000000
     6  C    0.000000   0.000000   0.000000
     7  H    0.000000   0.000000   0.000000
     8  H    0.000000   0.000000   0.000000
     9  H    0.000000   0.000000   0.000000
    10  H    0.000000   0.000000   0.000000
    11  H    0.000000   0.000000   0.000000
    12  H    0.000000   0.000000   0.000000
    13  Bq   0.000000   0.000000   0.000000
    14  Bq   0.000000   0.000000   0.000000
    15  Bq   0.000000   0.000000   0.000000
 Mulliken atomic charges:
              1
     1  C   -0.062301
     2  C   -0.062299
     3  C   -0.062286
     4  C   -0.062300
     5  C   -0.062301
     6  C   -0.062285
     7  H    0.062305
     8  H    0.062294
     9  H    0.062287
    10  H    0.062304
    11  H    0.062295
    12  H    0.062286
    13  Bq   0.000000
    14  Bq   0.000000
    15  Bq   0.000000
 Sum of Mulliken atomic charges =   0.00000
 Mulliken charges with hydrogens summed into heavy atoms:
              1
     1  C    0.000004
     2  C   -0.000005
     3  C    0.000001
     4  C    0.000004
     5  C   -0.000006
     6  C    0.000001
    13  Bq   0.000000
    14  Bq   0.000000
    15  Bq   0.000000
 Sum of Mulliken charges with hydrogens summed into heavy atoms =   0.00000
 Electronic spatial extent (au):  <R**2>=            454.1044
 Charge=              0.0000 electrons
 Dipole moment (field-independent basis, Debye):
    X=              0.0000    Y=              0.0000    Z=              0.0000  Tot=              0.0000
 Quadrupole moment (field-independent basis, Debye-Ang):
   XX=            -31.1959   YY=            -31.1974   ZZ=            -35.1014
   XY=              0.0000   XZ=              0.0000   YZ=              0.0000
 Traceless Quadrupole moment (field-independent basis, Debye-Ang):
   XX=              1.3023   YY=              1.3008   ZZ=             -2.6031
   XY=              0.0000   XZ=              0.0000   YZ=              0.0000
 Octapole moment (field-independent basis, Debye-Ang**2):
  XXX=             -0.0011  YYY=              0.0003  ZZZ=             -0.0001  XYY=              0.0011
  XXY=             -0.0006  XXZ=             -0.0001  XZZ=              0.0000  YZZ=              0.0000
  YYZ=             -0.0001  XYZ=              0.0000
 Hexadecapole moment (field-independent basis, Debye-Ang**3):
 XXXX=           -260.1413 YYYY=           -260.1176 ZZZZ=            -28.5124 XXXY=             -0.0014
 XXXZ=              0.0000 YYYX=              0.0015 YYYZ=              0.0003 ZZZX=             -0.0001
 ZZZY=              0.0001 XXYY=            -86.7108 XXZZ=            -53.7165 YYZZ=            -53.7104
 XXYZ=              0.0001 YYXZ=              0.0000 ZZXY=              0.0000
 N-N= 2.035338365798D+02 E-N=-9.378917940171D+02  KE= 2.259752181934D+02
 1|1|UNPC-LAPTOP-B2GCDIS0|SP|RHF|STO-3G|C6H6|USER|21-Dec-2020|0||# HF/S
 TO-3G NMR=GIAO INTEGRAL=(GRID=ULTRAFINE) CPHF=(GRID=FINE)||-----------
 ---- # Center 1||0,1|C,0,-1.30316,0.49558,0.|C,0,-1.08072,-0.88071,0.|
 C,0,0.22234,-1.37623,0.00001|C,0,1.30318,-0.49552,0.|C,0,1.08076,0.880
 67,0.|C,0,-0.2224,1.37622,0.|H,0,-2.31783,0.88144,-0.00001|H,0,-1.9223
 2,-1.56641,-0.00001|H,0,0.39544,-2.44792,-0.00001|H,0,2.3178,-0.88151,
 -0.00001|H,0,1.92227,1.56647,0.|H,0,-0.39536,2.44793,0.00001|Bq,0,5.,5
 .,5.|Bq,0,4.,4.,4.|Bq,0,-3.,-3.,-3.||Version=IA32W-G09RevA.02|HF=-227.
 8909265|RMSD=7.840e-010|Dipole=0.0000007,-0.0000014,-0.0000047|Quadrup
 ole=0.9682386,0.9671191,-1.9353576,0.0000257,0.0000025,0.0000295|PG=C0
 1 [X(C6H6)]||@


 THE ONLY DIFFERENCE BETWEEN ECCENTRICS AND JOGGERS
 IS THAT JOGGERS WEAR SWEATBANDS WHEN THEY RUN IN THE RAIN.
 Job cpu time:  0 days  0 hours  0 minutes  6.0 seconds.
 File lengths (MBytes):  RWF=      5 Int=      0 D2E=      0 Chk=      1 Scr=      1
 Normal termination of Gaussian 09 at Mon Dec 21 10:53:14 2020.
