 Entering Gaussian System, Link 0=g09
 Initial command:
 /usr/local/g09/l1.exe "/gtmp/Gau-19407.inp" -scrdir="/gtmp/"
 Entering Link 1 = /usr/local/g09/l1.exe PID=     19409.
  
 Copyright (c) 1988,1990,1992,1993,1995,1998,2003,2009,2013,
            Gaussian, Inc.  All Rights Reserved.
  
 This is part of the Gaussian(R) 09 program.  It is based on
 the Gaussian(R) 03 system (copyright 2003, Gaussian, Inc.),
 the Gaussian(R) 98 system (copyright 1998, Gaussian, Inc.),
 the Gaussian(R) 94 system (copyright 1995, Gaussian, Inc.),
 the Gaussian 92(TM) system (copyright 1992, Gaussian, Inc.),
 the Gaussian 90(TM) system (copyright 1990, Gaussian, Inc.),
 the Gaussian 88(TM) system (copyright 1988, Gaussian, Inc.),
 the Gaussian 86(TM) system (copyright 1986, Carnegie Mellon
 University), and the Gaussian 82(TM) system (copyright 1983,
 Carnegie Mellon University). Gaussian is a federally registered
 trademark of Gaussian, Inc.
  
 This software contains proprietary and confidential information,
 including trade secrets, belonging to Gaussian, Inc.
  
 This software is provided under written license and may be
 used, copied, transmitted, or stored only in accord with that
 written license.
  
 The following legend is applicable only to US Government
 contracts under FAR:
  
                    RESTRICTED RIGHTS LEGEND
  
 Use, reproduction and disclosure by the US Government is
 subject to restrictions as set forth in subparagraphs (a)
 and (c) of the Commercial Computer Software - Restricted
 Rights clause in FAR 52.227-19.
  
 Gaussian, Inc.
 340 Quinnipiac St., Bldg. 40, Wallingford CT 06492
  
  
 ---------------------------------------------------------------
 Warning -- This program may not be used in any manner that
 competes with the business of Gaussian, Inc. or will provide
 assistance to any competitor of Gaussian, Inc.  The licensee
 of this program is prohibited from giving any competitor of
 Gaussian, Inc. access to this program.  By using this program,
 the user acknowledges that Gaussian, Inc. is engaged in the
 business of creating and licensing software in the field of
 computational chemistry and represents and warrants to the
 licensee that it is not a competitor of Gaussian, Inc. and that
 it will not use this program in any manner prohibited above.
 ---------------------------------------------------------------
  

 Cite this work as:
 Gaussian 09, Revision D.01,
 M. J. Frisch, G. W. Trucks, H. B. Schlegel, G. E. Scuseria, 
 M. A. Robb, J. R. Cheeseman, G. Scalmani, V. Barone, B. Mennucci, 
 G. A. Petersson, H. Nakatsuji, M. Caricato, X. Li, H. P. Hratchian, 
 A. F. Izmaylov, J. Bloino, G. Zheng, J. L. Sonnenberg, M. Hada, 
 M. Ehara, K. Toyota, R. Fukuda, J. Hasegawa, M. Ishida, T. Nakajima, 
 Y. Honda, O. Kitao, H. Nakai, T. Vreven, J. A. Montgomery, Jr., 
 J. E. Peralta, F. Ogliaro, M. Bearpark, J. J. Heyd, E. Brothers, 
 K. N. Kudin, V. N. Staroverov, T. Keith, R. Kobayashi, J. Normand, 
 K. Raghavachari, A. Rendell, J. C. Burant, S. S. Iyengar, J. Tomasi, 
 M. Cossi, N. Rega, J. M. Millam, M. Klene, J. E. Knox, J. B. Cross, 
 V. Bakken, C. Adamo, J. Jaramillo, R. Gomperts, R. E. Stratmann, 
 O. Yazyev, A. J. Austin, R. Cammi, C. Pomelli, J. W. Ochterski, 
 R. L. Martin, K. Morokuma, V. G. Zakrzewski, G. A. Voth, 
 P. Salvador, J. J. Dannenberg, S. Dapprich, A. D. Daniels, 
 O. Farkas, J. B. Foresman, J. V. Ortiz, J. Cioslowski, 
 and D. J. Fox, Gaussian, Inc., Wallingford CT, 2013.
 
 ******************************************
 Gaussian 09:  EM64L-G09RevD.01 24-Apr-2013
                22-Oct-2020 
 ******************************************
 %chk=/home/stanger/chk/benzene-4-anuja
 %nprocshared=16
 Will use up to   16 processors via shared memory.
 %mem=14336MB
 -----------------------------
 # b3lyp/6-311g(d) 6d opt freq
 -----------------------------
 1/14=-1,18=20,19=15,26=3,38=1/1,3;
 2/9=110,12=2,17=6,18=5,40=1/2;
 3/5=4,6=6,7=1,8=2,11=2,16=1,25=1,30=1,71=1,74=-5/1,2,3;
 4//1;
 5/5=2,38=5/2;
 6/7=2,8=2,9=2,10=2,28=1/1;
 7//1,2,3,16;
 1/14=-1,18=20,19=15,26=3/3(2);
 2/9=110/2;
 99//99;
 2/9=110/2;
 3/5=4,6=6,7=1,8=2,11=2,16=1,25=1,30=1,71=1,74=-5/1,2,3;
 4/5=5,16=3,69=1/1;
 5/5=2,38=5/2;
 7//1,2,3,16;
 1/14=-1,18=20,19=15,26=3/3(-5);
 2/9=110/2;
 6/7=2,8=2,9=2,10=2,19=2,28=1/1;
 99/9=1/99;
 ---------------
 benzene-4-anuja
 ---------------
 Symbolic Z-matrix:
 Charge =  0 Multiplicity = 1
 C                     0.3122    0.18448   0. 
 C                     1.70736   0.18448   0. 
 C                     2.4049    1.39224   0. 
 C                     1.70725   2.60074  -0.0012 
 C                     0.31242   2.60067  -0.00168 
 C                    -0.38518   1.39246  -0.00068 
 H                    -0.23755  -0.76783   0.00045 
 H                     2.25687  -0.76803   0.00132 
 H                     3.50458   1.39232   0.00063 
 H                     2.25745   3.55289  -0.00126 
 H                    -0.2377    3.55295  -0.00263 
 H                    -1.48478   1.39264  -0.00086 
 

 GradGradGradGradGradGradGradGradGradGradGradGradGradGradGradGradGradGrad
 Berny optimization.
 Initialization pass.
                           ----------------------------
                           !    Initial Parameters    !
                           ! (Angstroms and Degrees)  !
 --------------------------                            --------------------------
 ! Name  Definition              Value          Derivative Info.                !
 --------------------------------------------------------------------------------
 ! R1    R(1,2)                  1.3952         estimate D2E/DX2                !
 ! R2    R(1,6)                  1.3948         estimate D2E/DX2                !
 ! R3    R(1,7)                  1.0996         estimate D2E/DX2                !
 ! R4    R(2,3)                  1.3947         estimate D2E/DX2                !
 ! R5    R(2,8)                  1.0997         estimate D2E/DX2                !
 ! R6    R(3,4)                  1.3954         estimate D2E/DX2                !
 ! R7    R(3,9)                  1.0997         estimate D2E/DX2                !
 ! R8    R(4,5)                  1.3948         estimate D2E/DX2                !
 ! R9    R(4,10)                 1.0997         estimate D2E/DX2                !
 ! R10   R(5,6)                  1.3951         estimate D2E/DX2                !
 ! R11   R(5,11)                 1.0998         estimate D2E/DX2                !
 ! R12   R(6,12)                 1.0996         estimate D2E/DX2                !
 ! A1    A(2,1,6)              119.9985         estimate D2E/DX2                !
 ! A2    A(2,1,7)              119.9972         estimate D2E/DX2                !
 ! A3    A(6,1,7)              120.0043         estimate D2E/DX2                !
 ! A4    A(1,2,3)              120.0086         estimate D2E/DX2                !
 ! A5    A(1,2,8)              119.9808         estimate D2E/DX2                !
 ! A6    A(3,2,8)              120.0106         estimate D2E/DX2                !
 ! A7    A(2,3,4)              119.9942         estimate D2E/DX2                !
 ! A8    A(2,3,9)              120.0128         estimate D2E/DX2                !
 ! A9    A(4,3,9)              119.993          estimate D2E/DX2                !
 ! A10   A(3,4,5)              119.994          estimate D2E/DX2                !
 ! A11   A(3,4,10)             119.9811         estimate D2E/DX2                !
 ! A12   A(5,4,10)             120.0249         estimate D2E/DX2                !
 ! A13   A(4,5,6)              120.0047         estimate D2E/DX2                !
 ! A14   A(4,5,11)             120.0113         estimate D2E/DX2                !
 ! A15   A(6,5,11)             119.984          estimate D2E/DX2                !
 ! A16   A(1,6,5)              120.0            estimate D2E/DX2                !
 ! A17   A(1,6,12)             120.008          estimate D2E/DX2                !
 ! A18   A(5,6,12)             119.992          estimate D2E/DX2                !
 ! D1    D(6,1,2,3)              0.0323         estimate D2E/DX2                !
 ! D2    D(6,1,2,8)            179.9532         estimate D2E/DX2                !
 ! D3    D(7,1,2,3)           -179.9729         estimate D2E/DX2                !
 ! D4    D(7,1,2,8)             -0.052          estimate D2E/DX2                !
 ! D5    D(2,1,6,5)              0.0149         estimate D2E/DX2                !
 ! D6    D(2,1,6,12)           179.9892         estimate D2E/DX2                !
 ! D7    D(7,1,6,5)           -179.9798         estimate D2E/DX2                !
 ! D8    D(7,1,6,12)            -0.0056         estimate D2E/DX2                !
 ! D9    D(1,2,3,4)             -0.0568         estimate D2E/DX2                !
 ! D10   D(1,2,3,9)            179.9619         estimate D2E/DX2                !
 ! D11   D(8,2,3,4)           -179.9777         estimate D2E/DX2                !
 ! D12   D(8,2,3,9)              0.041          estimate D2E/DX2                !
 ! D13   D(2,3,4,5)              0.0341         estimate D2E/DX2                !
 ! D14   D(2,3,4,10)          -179.9964         estimate D2E/DX2                !
 ! D15   D(9,3,4,5)           -179.9846         estimate D2E/DX2                !
 ! D16   D(9,3,4,10)            -0.0151         estimate D2E/DX2                !
 ! D17   D(3,4,5,6)              0.0131         estimate D2E/DX2                !
 ! D18   D(3,4,5,11)          -179.9995         estimate D2E/DX2                !
 ! D19   D(10,4,5,6)          -179.9563         estimate D2E/DX2                !
 ! D20   D(10,4,5,11)            0.0311         estimate D2E/DX2                !
 ! D21   D(4,5,6,1)             -0.0376         estimate D2E/DX2                !
 ! D22   D(4,5,6,12)           179.9881         estimate D2E/DX2                !
 ! D23   D(11,5,6,1)           179.975          estimate D2E/DX2                !
 ! D24   D(11,5,6,12)            0.0007         estimate D2E/DX2                !
 --------------------------------------------------------------------------------
 Trust Radius=3.00D-01 FncErr=1.00D-07 GrdErr=1.00D-06
 Number of steps in this run=     64 maximum allowed number of steps=    100.
 GradGradGradGradGradGradGradGradGradGradGradGradGradGradGradGradGradGrad

                          Input orientation:                          
 ---------------------------------------------------------------------
 Center     Atomic      Atomic             Coordinates (Angstroms)
 Number     Number       Type             X           Y           Z
 ---------------------------------------------------------------------
      1          6           0        0.312204    0.184484    0.000000
      2          6           0        1.707364    0.184484    0.000000
      3          6           0        2.404902    1.392235    0.000000
      4          6           0        1.707248    2.600744   -0.001199
      5          6           0        0.312423    2.600666   -0.001678
      6          6           0       -0.385178    1.392460   -0.000682
      7          1           0       -0.237555   -0.767833    0.000450
      8          1           0        2.256872   -0.768029    0.001315
      9          1           0        3.504582    1.392315    0.000634
     10          1           0        2.257448    3.552887   -0.001258
     11          1           0       -0.237699    3.552947   -0.002631
     12          1           0       -1.484782    1.392643   -0.000862
 ---------------------------------------------------------------------
                    Distance matrix (angstroms):
                    1          2          3          4          5
     1  C    0.000000
     2  C    1.395160   0.000000
     3  C    2.416205   1.394712   0.000000
     4  C    2.790065   2.416260   1.395427   0.000000
     5  C    2.416183   2.789946   2.416356   1.394825   0.000000
     6  C    1.394829   2.416183   2.790080   2.416236   1.395138
     7  H    1.099610   2.165553   3.412986   3.889675   3.413102
     8  H    2.165414   1.099655   2.165330   3.413316   3.889601
     9  H    3.413229   2.165375   1.099680   2.165806   3.413209
    10  H    3.889745   3.413024   2.165678   1.099680   2.165606
    11  H    3.413055   3.889707   3.413506   2.165528   1.099761
    12  H    2.165365   3.413128   3.889684   3.412999   2.165471
                    6          7          8          9         10
     6  C    0.000000
     7  H    2.165331   0.000000
     8  H    3.412938   2.494427   0.000000
     9  H    3.889760   4.320860   2.494768   0.000000
    10  H    3.413344   4.989355   4.320917   2.494678   0.000000
    11  H    2.165516   4.320781   4.989362   4.321228   2.495147
    12  H    1.099604   2.494641   4.320704   4.989364   4.320988
                   11         12
    11  H    0.000000
    12  H    2.494420   0.000000
 Stoichiometry    C6H6
 Framework group  C1[X(C6H6)]
 Deg. of freedom    30
 Full point group                 C1      NOp   1
 Largest Abelian subgroup         C1      NOp   1
 Largest concise Abelian subgroup C1      NOp   1
                         Standard orientation:                         
 ---------------------------------------------------------------------
 Center     Atomic      Atomic             Coordinates (Angstroms)
 Number     Number       Type             X           Y           Z
 ---------------------------------------------------------------------
      1          6           0       -0.176717   -1.383752    0.000005
      2          6           0        1.110106   -0.844719   -0.000364
      3          6           0        1.286853    0.538749    0.000194
      4          6           0        0.176454    1.383870   -0.000075
      5          6           0       -1.110031    0.844894   -0.000185
      6          6           0       -1.286660   -0.539018    0.000252
      7          1           0       -0.315850   -2.474525    0.000015
      8          1           0        1.984957   -1.510960    0.000218
      9          1           0        2.301110    0.963694    0.000537
     10          1           0        0.316060    2.474652    0.000306
     11          1           0       -1.985358    1.510684   -0.000405
     12          1           0       -2.300948   -0.963691    0.000364
 ---------------------------------------------------------------------
 Rotational constants (GHZ):      5.6865650      5.6862639      2.8432074
 Standard basis: 6-311G(d) (6D, 7F)
 There are   132 symmetry adapted cartesian basis functions of A   symmetry.
 There are   132 symmetry adapted basis functions of A   symmetry.
   132 basis functions,   222 primitive gaussians,   132 cartesian basis functions
    21 alpha electrons       21 beta electrons
       nuclear repulsion energy       203.0307482098 Hartrees.
 NAtoms=   12 NActive=   12 NUniq=   12 SFac= 1.00D+00 NAtFMM=   60 NAOKFM=F Big=F
 Integral buffers will be    131072 words long.
 Raffenetti 2 integral format.
 Two-electron integral symmetry is turned on.
 One-electron integrals computed using PRISM.
 NBasis=   132 RedAO= T EigKep=  1.89D-04  NBF=   132
 NBsUse=   132 1.00D-06 EigRej= -1.00D+00 NBFU=   132
 ExpMin= 1.03D-01 ExpMax= 4.56D+03 ExpMxC= 6.82D+02 IAcc=1 IRadAn=         1 AccDes= 0.00D+00
 Harris functional with IExCor=  402 and IRadAn=       1 diagonalized for initial guess.
 HarFok:  IExCor=  402 AccDes= 0.00D+00 IRadAn=         1 IDoV= 1 UseB2=F ITyADJ=14
 ICtDFT=  3500011 ScaDFX=  1.000000  1.000000  1.000000  1.000000
 FoFCou: FMM=F IPFlag=           0 FMFlag=      100000 FMFlg1=           0
         NFxFlg=           0 DoJE=T BraDBF=F KetDBF=T FulRan=T
         wScrn=  0.000000 ICntrl=     500 IOpCl=  0 I1Cent=   200000004 NGrid=           0
         NMat0=    1 NMatS0=      1 NMatT0=    0 NMatD0=    1 NMtDS0=    0 NMtDT0=    0
 Petite list used in FoFCou.
 Keep R1 ints in memory in canonical form, NReq=39781213.
 Requested convergence on RMS density matrix=1.00D-08 within 128 cycles.
 Requested convergence on MAX density matrix=1.00D-06.
 Requested convergence on             energy=1.00D-06.
 No special actions if energy rises.
 Integral accuracy reduced to 1.0D-05 until final iterations.
 Initial convergence to 1.0D-05 achieved.  Increase integral accuracy.
 SCF Done:  E(RB3LYP) =  -232.300443843     A.U. after   11 cycles
            NFock= 11  Conv=0.53D-08     -V/T= 2.0061

 **********************************************************************

            Population analysis using the SCF density.

 **********************************************************************

 Orbital symmetries:
       Occupied  (A) (A) (A) (A) (A) (A) (A) (A) (A) (A) (A) (A)
                 (A) (A) (A) (A) (A) (A) (A) (A) (A)
       Virtual   (A) (A) (A) (A) (A) (A) (A) (A) (A) (A) (A) (A)
                 (A) (A) (A) (A) (A) (A) (A) (A) (A) (A) (A) (A)
                 (A) (A) (A) (A) (A) (A) (A) (A) (A) (A) (A) (A)
                 (A) (A) (A) (A) (A) (A) (A) (A) (A) (A) (A) (A)
                 (A) (A) (A) (A) (A) (A) (A) (A) (A) (A) (A) (A)
                 (A) (A) (A) (A) (A) (A) (A) (A) (A) (A) (A) (A)
                 (A) (A) (A) (A) (A) (A) (A) (A) (A) (A) (A) (A)
                 (A) (A) (A) (A) (A) (A) (A) (A) (A) (A) (A) (A)
                 (A) (A) (A) (A) (A) (A) (A) (A) (A) (A) (A) (A)
                 (A) (A) (A)
 The electronic state is 1-A.
 Alpha  occ. eigenvalues --  -10.18077 -10.18050 -10.18049 -10.17992 -10.17991
 Alpha  occ. eigenvalues --  -10.17963  -0.85607  -0.74726  -0.74723  -0.60351
 Alpha  occ. eigenvalues --   -0.60347  -0.52470  -0.46117  -0.44970  -0.42403
 Alpha  occ. eigenvalues --   -0.42402  -0.36914  -0.34745  -0.34738  -0.25582
 Alpha  occ. eigenvalues --   -0.25579
 Alpha virt. eigenvalues --   -0.00858  -0.00853   0.03926   0.07535   0.07536
 Alpha virt. eigenvalues --    0.10953   0.10954   0.13339   0.15012   0.26840
 Alpha virt. eigenvalues --    0.26845   0.28200   0.28208   0.29899   0.34867
 Alpha virt. eigenvalues --    0.38922   0.38924   0.39021   0.41356   0.41841
 Alpha virt. eigenvalues --    0.43312   0.43317   0.44689   0.44690   0.52492
 Alpha virt. eigenvalues --    0.52495   0.53452   0.57587   0.57590   0.60277
 Alpha virt. eigenvalues --    0.60281   0.60354   0.66101   0.66295   0.71638
 Alpha virt. eigenvalues --    0.71641   0.71903   0.71912   0.79178   0.83132
 Alpha virt. eigenvalues --    0.83140   0.84290   0.97332   0.97339   1.01423
 Alpha virt. eigenvalues --    1.02375   1.18097   1.20485   1.20488   1.23505
 Alpha virt. eigenvalues --    1.23507   1.26009   1.44519   1.45163   1.45167
 Alpha virt. eigenvalues --    1.47226   1.63340   1.63349   1.77054   1.77061
 Alpha virt. eigenvalues --    1.79036   1.79042   1.90161   1.90164   1.91800
 Alpha virt. eigenvalues --    1.91814   1.92058   1.96598   2.18049   2.19899
 Alpha virt. eigenvalues --    2.19920   2.21489   2.21493   2.28846   2.28854
 Alpha virt. eigenvalues --    2.34555   2.44354   2.53259   2.64380   2.67997
 Alpha virt. eigenvalues --    2.68000   2.79620   2.79630   2.83040   2.83043
 Alpha virt. eigenvalues --    2.93081   2.96011   2.96013   3.02741   3.03815
 Alpha virt. eigenvalues --    3.09969   3.09971   3.18962   3.23658   3.27442
 Alpha virt. eigenvalues --    3.27468   3.27508   3.27518   3.56896   3.98942
 Alpha virt. eigenvalues --    3.98945   4.15303   4.15305   4.37148   4.78408
 Alpha virt. eigenvalues --   26.38315  26.39310  26.39320  26.54773  26.54785
 Alpha virt. eigenvalues --   26.84239
          Condensed to atoms (all electrons):
               1          2          3          4          5          6
     1  C    4.945630   0.524784  -0.046449  -0.037972  -0.046460   0.525086
     2  C    0.524784   4.945408   0.525112  -0.046450  -0.037964  -0.046453
     3  C   -0.046449   0.525112   4.945660   0.524671  -0.046445  -0.037969
     4  C   -0.037972  -0.046450   0.524671   4.945741   0.525099  -0.046443
     5  C   -0.046460  -0.037964  -0.046445   0.525099   4.945433   0.524758
     6  C    0.525086  -0.046453  -0.037969  -0.046443   0.524758   4.945600
     7  H    0.397708  -0.044534   0.006609  -0.000295   0.006613  -0.044536
     8  H   -0.044562   0.397691  -0.044542   0.006613  -0.000295   0.006613
     9  H    0.006611  -0.044521   0.397691  -0.044533   0.006605  -0.000295
    10  H   -0.000294   0.006608  -0.044545   0.397687  -0.044505   0.006608
    11  H    0.006612  -0.000295   0.006611  -0.044533   0.397678  -0.044561
    12  H   -0.044531   0.006612  -0.000295   0.006608  -0.044539   0.397705
               7          8          9         10         11         12
     1  C    0.397708  -0.044562   0.006611  -0.000294   0.006612  -0.044531
     2  C   -0.044534   0.397691  -0.044521   0.006608  -0.000295   0.006612
     3  C    0.006609  -0.044542   0.397691  -0.044545   0.006611  -0.000295
     4  C   -0.000295   0.006613  -0.044533   0.397687  -0.044533   0.006608
     5  C    0.006613  -0.000295   0.006605  -0.044505   0.397678  -0.044539
     6  C   -0.044536   0.006613  -0.000295   0.006608  -0.044561   0.397705
     7  H    0.506434  -0.006721  -0.000371   0.000080  -0.000372  -0.006726
     8  H   -0.006721   0.506520  -0.006728  -0.000372   0.000080  -0.000372
     9  H   -0.000371  -0.006728   0.506449  -0.006711  -0.000371   0.000080
    10  H    0.000080  -0.000372  -0.006711   0.506428  -0.006724  -0.000371
    11  H   -0.000372   0.000080  -0.000371  -0.006724   0.506541  -0.006721
    12  H   -0.006726  -0.000372   0.000080  -0.000371  -0.006721   0.506447
 Mulliken charges:
               1
     1  C   -0.186162
     2  C   -0.185998
     3  C   -0.186108
     4  C   -0.186192
     5  C   -0.185978
     6  C   -0.186113
     7  H    0.186112
     8  H    0.186075
     9  H    0.186096
    10  H    0.186110
    11  H    0.186055
    12  H    0.186103
 Sum of Mulliken charges =   0.00000
 Mulliken charges with hydrogens summed into heavy atoms:
               1
     1  C   -0.000050
     2  C    0.000077
     3  C   -0.000012
     4  C   -0.000082
     5  C    0.000077
     6  C   -0.000009
 Electronic spatial extent (au):  <R**2>=            460.4653
 Charge=              0.0000 electrons
 Dipole moment (field-independent basis, Debye):
    X=              0.0000    Y=             -0.0002    Z=              0.0008  Tot=              0.0008
 Quadrupole moment (field-independent basis, Debye-Ang):
   XX=            -31.7624   YY=            -31.7630   ZZ=            -39.9568
   XY=              0.0011   XZ=              0.0018   YZ=             -0.0001
 Traceless Quadrupole moment (field-independent basis, Debye-Ang):
   XX=              2.7317   YY=              2.7311   ZZ=             -5.4627
   XY=              0.0011   XZ=              0.0018   YZ=             -0.0001
 Octapole moment (field-independent basis, Debye-Ang**2):
  XXX=             -0.0044  YYY=             -0.0034  ZZZ=              0.0012  XYY=              0.0047
  XXY=              0.0019  XXZ=              0.0040  XZZ=             -0.0002  YZZ=             -0.0011
  YYZ=              0.0030  XYZ=              0.0016
 Hexadecapole moment (field-independent basis, Debye-Ang**3):
 XXXX=           -274.1560 YYYY=           -274.1438 ZZZZ=            -45.6959 XXXY=              0.0049
 XXXZ=              0.0098 YYYX=              0.0071 YYYZ=              0.0028 ZZZX=              0.0021
 ZZZY=             -0.0001 XXYY=            -91.3857 XXZZ=            -63.7281 YYZZ=            -63.7265
 XXYZ=             -0.0033 YYXZ=              0.0049 ZZXY=              0.0002
 N-N= 2.030307482098D+02 E-N=-9.443059368532D+02  KE= 2.308809708182D+02
 Calling FoFJK, ICntrl=      2127 FMM=F ISym2X=0 I1Cent= 0 IOpClX= 0 NMat=1 NMatS=1 NMatT=0.
 ***** Axes restored to original set *****
 -------------------------------------------------------------------
 Center     Atomic                   Forces (Hartrees/Bohr)
 Number     Number              X              Y              Z
 -------------------------------------------------------------------
      1        6          -0.003910141   -0.006920486   -0.000015571
      2        6           0.003857946   -0.007026530    0.000119311
      3        6           0.007925757    0.000366089   -0.000049194
      4        6           0.004246777    0.006661779    0.000033420
      5        6          -0.004123503    0.006888171    0.000013167
      6        6          -0.007967925    0.000103118   -0.000054660
      7        1           0.004558954    0.007880705    0.000001014
      8        1          -0.004540584    0.007903027   -0.000044913
      9        1          -0.009153292   -0.000014199   -0.000008134
     10        1          -0.004611439   -0.007904152   -0.000016308
     11        1           0.004614896   -0.007938375    0.000015974
     12        1           0.009102554    0.000000852    0.000005894
 -------------------------------------------------------------------
 Cartesian Forces:  Max     0.009153292 RMS     0.004948166

 GradGradGradGradGradGradGradGradGradGradGradGradGradGradGradGradGradGrad
 Berny optimization.
 FormGI is forming the generalized inverse of G from B-inverse, IUseBI=4.
 Internal  Forces:  Max     0.009182299 RMS     0.003070216
 Search for a local minimum.
 Step number   1 out of a maximum of   64
 All quantities printed in internal units (Hartrees-Bohrs-Radians)
 Mixed Optimization -- RFO/linear search
 Second derivative matrix not updated -- first step.
 ITU=  0
     Eigenvalues ---    0.02152   0.02153   0.02154   0.02155   0.02155
     Eigenvalues ---    0.02155   0.02155   0.02156   0.02157   0.16000
     Eigenvalues ---    0.16000   0.16000   0.16000   0.16000   0.16000
     Eigenvalues ---    0.22000   0.22000   0.22000   0.33709   0.33718
     Eigenvalues ---    0.33718   0.33720   0.33725   0.33726   0.42106
     Eigenvalues ---    0.42123   0.46412   0.46453   0.46466   0.46497
 RFO step:  Lambda=-1.49636396D-03 EMin= 2.15189816D-02
 Linear search not attempted -- first point.
 Iteration  1 RMS(Cart)=  0.00986862 RMS(Int)=  0.00000261
 Iteration  2 RMS(Cart)=  0.00000224 RMS(Int)=  0.00000009
 Iteration  3 RMS(Cart)=  0.00000000 RMS(Int)=  0.00000009
 Variable       Old X    -DE/DX   Delta X   Delta X   Delta X     New X
                                 (Linear)    (Quad)   (Total)
    R1        2.63647  -0.00120   0.00000  -0.00256  -0.00256   2.63391
    R2        2.63584  -0.00110   0.00000  -0.00235  -0.00235   2.63350
    R3        2.07796  -0.00910   0.00000  -0.02688  -0.02688   2.05109
    R4        2.63562  -0.00102   0.00000  -0.00219  -0.00219   2.63344
    R5        2.07805  -0.00911   0.00000  -0.02691  -0.02691   2.05114
    R6        2.63697  -0.00143   0.00000  -0.00308  -0.00308   2.63390
    R7        2.07809  -0.00915   0.00000  -0.02703  -0.02703   2.05107
    R8        2.63584  -0.00108   0.00000  -0.00233  -0.00233   2.63351
    R9        2.07809  -0.00915   0.00000  -0.02702  -0.02702   2.05107
   R10        2.63643  -0.00121   0.00000  -0.00260  -0.00260   2.63383
   R11        2.07825  -0.00918   0.00000  -0.02712  -0.02712   2.05113
   R12        2.07795  -0.00910   0.00000  -0.02687  -0.02687   2.05108
    A1        2.09437  -0.00002   0.00000  -0.00002  -0.00002   2.09435
    A2        2.09435   0.00000   0.00000  -0.00005  -0.00005   2.09430
    A3        2.09447   0.00002   0.00000   0.00007   0.00007   2.09454
    A4        2.09455   0.00000   0.00000   0.00000   0.00000   2.09455
    A5        2.09406   0.00002   0.00000   0.00011   0.00011   2.09417
    A6        2.09458  -0.00002   0.00000  -0.00011  -0.00011   2.09447
    A7        2.09429   0.00001   0.00000   0.00000   0.00000   2.09429
    A8        2.09462  -0.00002   0.00000  -0.00008  -0.00008   2.09454
    A9        2.09427   0.00001   0.00000   0.00008   0.00008   2.09436
   A10        2.09429   0.00002   0.00000   0.00005   0.00005   2.09434
   A11        2.09407   0.00003   0.00000   0.00022   0.00022   2.09429
   A12        2.09483  -0.00005   0.00000  -0.00028  -0.00028   2.09455
   A13        2.09448   0.00002   0.00000   0.00007   0.00007   2.09455
   A14        2.09459  -0.00004   0.00000  -0.00019  -0.00019   2.09440
   A15        2.09411   0.00002   0.00000   0.00012   0.00012   2.09423
   A16        2.09440  -0.00003   0.00000  -0.00011  -0.00011   2.09429
   A17        2.09453   0.00002   0.00000   0.00006   0.00006   2.09460
   A18        2.09426   0.00001   0.00000   0.00004   0.00004   2.09430
    D1        0.00056  -0.00002   0.00000  -0.00066  -0.00066  -0.00009
    D2        3.14078   0.00002   0.00000   0.00082   0.00082  -3.14159
    D3       -3.14112  -0.00001   0.00000  -0.00063  -0.00063   3.14143
    D4       -0.00091   0.00002   0.00000   0.00085   0.00085  -0.00006
    D5        0.00026  -0.00001   0.00000  -0.00034  -0.00034  -0.00008
    D6        3.14140   0.00001   0.00000   0.00023   0.00023  -3.14155
    D7       -3.14124  -0.00001   0.00000  -0.00037  -0.00037   3.14158
    D8       -0.00010   0.00000   0.00000   0.00021   0.00021   0.00011
    D9       -0.00099   0.00003   0.00000   0.00117   0.00117   0.00018
   D10        3.14093   0.00002   0.00000   0.00080   0.00080  -3.14146
   D11       -3.14120  -0.00001   0.00000  -0.00031  -0.00031  -3.14151
   D12        0.00072  -0.00002   0.00000  -0.00068  -0.00068   0.00003
   D13        0.00060  -0.00002   0.00000  -0.00069  -0.00069  -0.00010
   D14       -3.14153   0.00000   0.00000  -0.00017  -0.00017   3.14149
   D15       -3.14132  -0.00001   0.00000  -0.00032  -0.00032   3.14155
   D16       -0.00026   0.00000   0.00000   0.00021   0.00021  -0.00006
   D17        0.00023  -0.00001   0.00000  -0.00031  -0.00031  -0.00008
   D18       -3.14158   0.00000   0.00000   0.00009   0.00009  -3.14149
   D19       -3.14083  -0.00002   0.00000  -0.00083  -0.00083   3.14152
   D20        0.00054  -0.00001   0.00000  -0.00044  -0.00044   0.00011
   D21       -0.00066   0.00002   0.00000   0.00083   0.00083   0.00017
   D22        3.14138   0.00001   0.00000   0.00025   0.00025  -3.14155
   D23        3.14116   0.00001   0.00000   0.00043   0.00043   3.14159
   D24        0.00001   0.00000   0.00000  -0.00015  -0.00015  -0.00014
         Item               Value     Threshold  Converged?
 Maximum Force            0.009182     0.000450     NO 
 RMS     Force            0.003070     0.000300     NO 
 Maximum Displacement     0.029544     0.001800     NO 
 RMS     Displacement     0.009869     0.001200     NO 
 Predicted change in Energy=-7.514822D-04
 GradGradGradGradGradGradGradGradGradGradGradGradGradGradGradGradGradGrad

                          Input orientation:                          
 ---------------------------------------------------------------------
 Center     Atomic      Atomic             Coordinates (Angstroms)
 Number     Number       Type             X           Y           Z
 ---------------------------------------------------------------------
      1          6           0        0.312832    0.185593    0.000070
      2          6           0        1.706639    0.185626    0.000568
      3          6           0        2.403570    1.392390   -0.000091
      4          6           0        1.706700    2.599472   -0.001029
      5          6           0        0.313105    2.599435   -0.001424
      6          6           0       -0.383933    1.392492   -0.000976
      7          1           0       -0.229749   -0.754445    0.000433
      8          1           0        2.249157   -0.754480    0.001376
      9          1           0        3.488948    1.392407    0.000173
     10          1           0        2.249512    3.539370   -0.001443
     11          1           0       -0.229629    3.539411   -0.002246
     12          1           0       -1.469318    1.392737   -0.001323
 ---------------------------------------------------------------------
                    Distance matrix (angstroms):
                    1          2          3          4          5
     1  C    0.000000
     2  C    1.393808   0.000000
     3  C    2.414031   1.393554   0.000000
     4  C    2.787415   2.413847   1.393799   0.000000
     5  C    2.413843   2.787188   2.413919   1.393595   0.000000
     6  C    1.393587   2.413922   2.787503   2.414031   1.393763
     7  H    1.085388   2.152518   3.397539   3.872802   3.397530
     8  H    2.152462   1.085415   2.152417   3.397538   3.872603
     9  H    3.397663   2.152428   1.085378   2.152537   3.397484
    10  H    3.872796   3.397398   2.152500   1.085382   2.152475
    11  H    3.397405   3.872598   3.397564   2.152407   1.085410
    12  H    2.152500   3.397620   3.872888   3.397543   2.152476
                    6          7          8          9         10
     6  C    0.000000
     7  H    2.152467   0.000000
     8  H    3.397448   2.478906   0.000000
     9  H    3.872881   4.293913   2.479155   0.000000
    10  H    3.397664   4.958184   4.293851   2.479043   0.000000
    11  H    2.152457   4.293857   4.958013   4.293885   2.479142
    12  H    1.085385   2.479299   4.293903   4.958266   4.293918
                   11         12
    11  H    0.000000
    12  H    2.478918   0.000000
 Stoichiometry    C6H6
 Framework group  C1[X(C6H6)]
 Deg. of freedom    30
 Full point group                 C1      NOp   1
 Largest Abelian subgroup         C1      NOp   1
 Largest concise Abelian subgroup C1      NOp   1
                         Standard orientation:                         
 ---------------------------------------------------------------------
 Center     Atomic      Atomic             Coordinates (Angstroms)
 Number     Number       Type             X           Y           Z
 ---------------------------------------------------------------------
      1          6           0       -1.025735   -0.943550    0.000003
      2          6           0        0.304423   -1.359939    0.000057
      3          6           0        1.330061   -0.416509   -0.000051
      4          6           0        1.025652    0.943642    0.000006
      5          6           0       -0.304304    1.359963    0.000055
      6          6           0       -1.330098    0.416394   -0.000049
      7          1           0       -1.824384   -1.678551   -0.000063
      8          1           0        0.541292   -2.419193    0.000091
      9          1           0        2.365872   -0.740765   -0.000133
     10          1           0        1.824480    1.678439    0.000021
     11          1           0       -0.541419    2.419157    0.000007
     12          1           0       -2.365837    0.740903   -0.000049
 ---------------------------------------------------------------------
 Rotational constants (GHZ):      5.7104982      5.7096494      2.8550369
 Standard basis: 6-311G(d) (6D, 7F)
 There are   132 symmetry adapted cartesian basis functions of A   symmetry.
 There are   132 symmetry adapted basis functions of A   symmetry.
   132 basis functions,   222 primitive gaussians,   132 cartesian basis functions
    21 alpha electrons       21 beta electrons
       nuclear repulsion energy       203.5953784942 Hartrees.
 NAtoms=   12 NActive=   12 NUniq=   12 SFac= 1.00D+00 NAtFMM=   60 NAOKFM=F Big=F
 Integral buffers will be    131072 words long.
 Raffenetti 2 integral format.
 Two-electron integral symmetry is turned on.
 One-electron integrals computed using PRISM.
 NBasis=   132 RedAO= T EigKep=  1.88D-04  NBF=   132
 NBsUse=   132 1.00D-06 EigRej= -1.00D+00 NBFU=   132
 Initial guess from the checkpoint file:  "/home/stanger/chk/benzene-4-anuja.chk"
 B after Tr=     0.000000    0.000000    0.000000
         Rot=    0.939358    0.000000    0.000000    0.342937 Ang=  40.11 deg.
 ExpMin= 1.03D-01 ExpMax= 4.56D+03 ExpMxC= 6.82D+02 IAcc=1 IRadAn=         1 AccDes= 0.00D+00
 Harris functional with IExCor=  402 and IRadAn=       1 diagonalized for initial guess.
 HarFok:  IExCor=  402 AccDes= 0.00D+00 IRadAn=         1 IDoV= 1 UseB2=F ITyADJ=14
 ICtDFT=  3500011 ScaDFX=  1.000000  1.000000  1.000000  1.000000
 FoFCou: FMM=F IPFlag=           0 FMFlag=      100000 FMFlg1=           0
         NFxFlg=           0 DoJE=T BraDBF=F KetDBF=T FulRan=T
         wScrn=  0.000000 ICntrl=     500 IOpCl=  0 I1Cent=   200000004 NGrid=           0
         NMat0=    1 NMatS0=      1 NMatT0=    0 NMatD0=    1 NMtDS0=    0 NMtDT0=    0
 Petite list used in FoFCou.
 Keep R1 ints in memory in canonical form, NReq=39781213.
 Requested convergence on RMS density matrix=1.00D-08 within 128 cycles.
 Requested convergence on MAX density matrix=1.00D-06.
 Requested convergence on             energy=1.00D-06.
 No special actions if energy rises.
 Integral accuracy reduced to 1.0D-05 until final iterations.
 Initial convergence to 1.0D-05 achieved.  Increase integral accuracy.
 SCF Done:  E(RB3LYP) =  -232.301213166     A.U. after   10 cycles
            NFock= 10  Conv=0.23D-08     -V/T= 2.0056
 Calling FoFJK, ICntrl=      2127 FMM=F ISym2X=0 I1Cent= 0 IOpClX= 0 NMat=1 NMatS=1 NMatT=0.
 ***** Axes restored to original set *****
 -------------------------------------------------------------------
 Center     Atomic                   Forces (Hartrees/Bohr)
 Number     Number              X              Y              Z
 -------------------------------------------------------------------
      1        6          -0.000001043   -0.000310569   -0.000002299
      2        6           0.000040308   -0.000322698   -0.000010527
      3        6           0.000206477    0.000123671    0.000009590
      4        6           0.000163678    0.000210870    0.000000105
      5        6          -0.000201128    0.000230140   -0.000013668
      6        6          -0.000211160    0.000061774    0.000012207
      7        1          -0.000078918   -0.000126568    0.000003599
      8        1           0.000079334   -0.000118042   -0.000000970
      9        1           0.000164669   -0.000009347    0.000002566
     10        1           0.000064236    0.000139764   -0.000001884
     11        1          -0.000066376    0.000129723    0.000004179
     12        1          -0.000160078   -0.000008717   -0.000002897
 -------------------------------------------------------------------
 Cartesian Forces:  Max     0.000322698 RMS     0.000130606

 GradGradGradGradGradGradGradGradGradGradGradGradGradGradGradGradGradGrad
 Berny optimization.
 Using GEDIIS/GDIIS optimizer.
 FormGI is forming the generalized inverse of G from B-inverse, IUseBI=4.
 Internal  Forces:  Max     0.000488077 RMS     0.000148192
 Search for a local minimum.
 Step number   2 out of a maximum of   64
 All quantities printed in internal units (Hartrees-Bohrs-Radians)
 Mixed Optimization -- En-DIIS/RFO-DIIS
 Update second derivatives using D2CorX and points    1    2
 DE= -7.69D-04 DEPred=-7.51D-04 R= 1.02D+00
 TightC=F SS=  1.41D+00  RLast= 6.64D-02 DXNew= 5.0454D-01 1.9925D-01
 Trust test= 1.02D+00 RLast= 6.64D-02 DXMaxT set to 3.00D-01
 ITU=  1  0
 Use linear search instead of GDIIS.
     Eigenvalues ---    0.02152   0.02153   0.02154   0.02155   0.02155
     Eigenvalues ---    0.02155   0.02156   0.02156   0.02157   0.16000
     Eigenvalues ---    0.16000   0.16000   0.16000   0.16000   0.16000
     Eigenvalues ---    0.21999   0.22000   0.22000   0.33710   0.33717
     Eigenvalues ---    0.33719   0.33723   0.33725   0.34120   0.42100
     Eigenvalues ---    0.42116   0.46439   0.46456   0.46466   0.47078
 RFO step:  Lambda=-1.99785426D-06 EMin= 2.15190219D-02
 Quartic linear search produced a step of -0.01764.
 Iteration  1 RMS(Cart)=  0.00050296 RMS(Int)=  0.00000003
 Iteration  2 RMS(Cart)=  0.00000003 RMS(Int)=  0.00000000
 Variable       Old X    -DE/DX   Delta X   Delta X   Delta X     New X
                                 (Linear)    (Quad)   (Total)
    R1        2.63391   0.00031   0.00005   0.00060   0.00065   2.63456
    R2        2.63350   0.00048   0.00004   0.00097   0.00101   2.63451
    R3        2.05109   0.00015   0.00047  -0.00015   0.00033   2.05141
    R4        2.63344   0.00049   0.00004   0.00098   0.00102   2.63446
    R5        2.05114   0.00014   0.00047  -0.00017   0.00031   2.05144
    R6        2.63390   0.00038   0.00005   0.00075   0.00080   2.63470
    R7        2.05107   0.00016   0.00048  -0.00011   0.00037   2.05144
    R8        2.63351   0.00041   0.00004   0.00082   0.00086   2.63437
    R9        2.05107   0.00015   0.00048  -0.00014   0.00034   2.05141
   R10        2.63383   0.00039   0.00005   0.00078   0.00082   2.63465
   R11        2.05113   0.00015   0.00048  -0.00016   0.00032   2.05144
   R12        2.05108   0.00016   0.00047  -0.00012   0.00036   2.05144
    A1        2.09435  -0.00002   0.00000  -0.00007  -0.00007   2.09428
    A2        2.09430   0.00002   0.00000   0.00012   0.00012   2.09442
    A3        2.09454  -0.00001   0.00000  -0.00006  -0.00006   2.09448
    A4        2.09455  -0.00003   0.00000  -0.00012  -0.00012   2.09442
    A5        2.09417   0.00001   0.00000   0.00007   0.00006   2.09423
    A6        2.09447   0.00001   0.00000   0.00006   0.00006   2.09453
    A7        2.09429   0.00004   0.00000   0.00019   0.00019   2.09448
    A8        2.09454  -0.00004   0.00000  -0.00022  -0.00022   2.09432
    A9        2.09436   0.00000   0.00000   0.00002   0.00002   2.09438
   A10        2.09434  -0.00001   0.00000  -0.00006  -0.00007   2.09428
   A11        2.09429   0.00001   0.00000   0.00007   0.00007   2.09435
   A12        2.09455   0.00000   0.00000   0.00000   0.00000   2.09455
   A13        2.09455  -0.00003   0.00000  -0.00013  -0.00013   2.09442
   A14        2.09440   0.00000   0.00000  -0.00005  -0.00004   2.09436
   A15        2.09423   0.00003   0.00000   0.00017   0.00017   2.09441
   A16        2.09429   0.00004   0.00000   0.00019   0.00020   2.09448
   A17        2.09460  -0.00002   0.00000  -0.00009  -0.00009   2.09450
   A18        2.09430  -0.00002   0.00000  -0.00010  -0.00010   2.09420
    D1       -0.00009   0.00000   0.00001   0.00008   0.00010   0.00000
    D2       -3.14159   0.00000  -0.00001   0.00002   0.00001  -3.14158
    D3        3.14143   0.00000   0.00001   0.00015   0.00016   3.14159
    D4       -0.00006   0.00000  -0.00001   0.00008   0.00007   0.00001
    D5       -0.00008   0.00000   0.00001   0.00008   0.00008   0.00000
    D6       -3.14155   0.00000   0.00000  -0.00003  -0.00004  -3.14158
    D7        3.14158   0.00000   0.00001   0.00001   0.00002  -3.14159
    D8        0.00011   0.00000   0.00000  -0.00009  -0.00010   0.00002
    D9        0.00018  -0.00001  -0.00002  -0.00017  -0.00019  -0.00001
   D10       -3.14146   0.00000  -0.00001  -0.00010  -0.00011  -3.14157
   D11       -3.14151   0.00000   0.00001  -0.00011  -0.00010   3.14158
   D12        0.00003   0.00000   0.00001  -0.00004  -0.00002   0.00001
   D13       -0.00010   0.00000   0.00001   0.00009   0.00010   0.00001
   D14        3.14149   0.00000   0.00000   0.00011   0.00011  -3.14158
   D15        3.14155   0.00000   0.00001   0.00002   0.00002   3.14157
   D16       -0.00006   0.00000   0.00000   0.00004   0.00004  -0.00002
   D17       -0.00008   0.00000   0.00001   0.00007   0.00008   0.00000
   D18       -3.14149   0.00000   0.00000  -0.00011  -0.00011   3.14158
   D19        3.14152   0.00000   0.00001   0.00005   0.00006   3.14159
   D20        0.00011   0.00000   0.00001  -0.00013  -0.00012  -0.00001
   D21        0.00017   0.00000  -0.00001  -0.00015  -0.00017   0.00000
   D22       -3.14155   0.00000   0.00000  -0.00005  -0.00005   3.14158
   D23        3.14159   0.00000  -0.00001   0.00002   0.00001  -3.14159
   D24       -0.00014   0.00000   0.00000   0.00013   0.00013   0.00000
         Item               Value     Threshold  Converged?
 Maximum Force            0.000488     0.000450     NO 
 RMS     Force            0.000148     0.000300     YES
 Maximum Displacement     0.001218     0.001800     YES
 RMS     Displacement     0.000503     0.001200     YES
 Predicted change in Energy=-1.296403D-06
 GradGradGradGradGradGradGradGradGradGradGradGradGradGradGradGradGradGrad

                          Input orientation:                          
 ---------------------------------------------------------------------
 Center     Atomic      Atomic             Coordinates (Angstroms)
 Number     Number       Type             X           Y           Z
 ---------------------------------------------------------------------
      1          6           0        0.312690    0.185092    0.000061
      2          6           0        1.706840    0.185121    0.000508
      3          6           0        2.403895    1.392439   -0.000038
      4          6           0        1.706897    2.599939   -0.001041
      5          6           0        0.312849    2.599910   -0.001491
      6          6           0       -0.384256    1.392503   -0.000939
      7          1           0       -0.230097   -0.755027    0.000484
      8          1           0        2.249496   -0.755092    0.001273
      9          1           0        3.489469    1.392354    0.000291
     10          1           0        2.249805    3.539988   -0.001475
     11          1           0       -0.229924    3.540055   -0.002263
     12          1           0       -1.469831    1.392725   -0.001280
 ---------------------------------------------------------------------
                    Distance matrix (angstroms):
                    1          2          3          4          5
     1  C    0.000000
     2  C    1.394150   0.000000
     3  C    2.414710   1.394096   0.000000
     4  C    2.788423   2.414819   1.394225   0.000000
     5  C    2.414818   2.788265   2.414634   1.394048   0.000000
     6  C    1.394122   2.414634   2.788151   2.414710   1.394198
     7  H    1.085561   2.153045   3.398459   3.873983   3.398587
     8  H    2.152944   1.085576   2.153074   3.398625   3.873841
     9  H    3.398442   2.152947   1.085574   2.153096   3.398398
    10  H    3.873983   3.398522   2.153070   1.085560   2.153031
    11  H    3.398560   3.873841   3.398420   2.152927   1.085577
    12  H    2.153081   3.398462   3.873726   3.398377   2.152962
                    6          7          8          9         10
     6  C    0.000000
     7  H    2.153057   0.000000
     8  H    3.398356   2.479594   0.000000
     9  H    3.873726   4.294930   2.479729   0.000000
    10  H    3.398525   4.959543   4.295081   2.479738   0.000000
    11  H    2.153091   4.295083   4.959418   4.294940   2.479729
    12  H    1.085574   2.479875   4.294941   4.959300   4.294931
                   11         12
    11  H    0.000000
    12  H    2.479596   0.000000
 Stoichiometry    C6H6
 Framework group  C1[X(C6H6)]
 Deg. of freedom    30
 Full point group                 C1      NOp   1
 Largest Abelian subgroup         C1      NOp   1
 Largest concise Abelian subgroup C1      NOp   1
                         Standard orientation:                         
 ---------------------------------------------------------------------
 Center     Atomic      Atomic             Coordinates (Angstroms)
 Number     Number       Type             X           Y           Z
 ---------------------------------------------------------------------
      1          6           0       -1.303160    0.495580    0.000001
      2          6           0       -1.080719   -0.880710    0.000001
      3          6           0        0.222339   -1.376231    0.000005
      4          6           0        1.303181   -0.495525    0.000000
      5          6           0        1.080756    0.880665   -0.000002
      6          6           0       -0.222398    1.376222   -0.000001
      7          1           0       -2.317831    0.881436   -0.000005
      8          1           0       -1.922319   -1.566411   -0.000011
      9          1           0        0.395440   -2.447916   -0.000014
     10          1           0        2.317802   -0.881510   -0.000005
     11          1           0        1.922271    1.566470    0.000003
     12          1           0       -0.395363    2.447928    0.000006
 ---------------------------------------------------------------------
 Rotational constants (GHZ):      5.7069636      5.7060666      2.8532575
 Standard basis: 6-311G(d) (6D, 7F)
 There are   132 symmetry adapted cartesian basis functions of A   symmetry.
 There are   132 symmetry adapted basis functions of A   symmetry.
   132 basis functions,   222 primitive gaussians,   132 cartesian basis functions
    21 alpha electrons       21 beta electrons
       nuclear repulsion energy       203.5338787996 Hartrees.
 NAtoms=   12 NActive=   12 NUniq=   12 SFac= 1.00D+00 NAtFMM=   60 NAOKFM=F Big=F
 Integral buffers will be    131072 words long.
 Raffenetti 2 integral format.
 Two-electron integral symmetry is turned on.
 One-electron integrals computed using PRISM.
 NBasis=   132 RedAO= T EigKep=  1.89D-04  NBF=   132
 NBsUse=   132 1.00D-06 EigRej= -1.00D+00 NBFU=   132
 Initial guess from the checkpoint file:  "/home/stanger/chk/benzene-4-anuja.chk"
 B after Tr=     0.000000    0.000000    0.000000
         Rot=    0.850644    0.000000    0.000000    0.525742 Ang=  63.44 deg.
 Keep R1 ints in memory in canonical form, NReq=39781213.
 Requested convergence on RMS density matrix=1.00D-08 within 128 cycles.
 Requested convergence on MAX density matrix=1.00D-06.
 Requested convergence on             energy=1.00D-06.
 No special actions if energy rises.
 SCF Done:  E(RB3LYP) =  -232.301192679     A.U. after    7 cycles
            NFock=  7  Conv=0.47D-08     -V/T= 2.0056
 Calling FoFJK, ICntrl=      2127 FMM=F ISym2X=0 I1Cent= 0 IOpClX= 0 NMat=1 NMatS=1 NMatT=0.
 ***** Axes restored to original set *****
 -------------------------------------------------------------------
 Center     Atomic                   Forces (Hartrees/Bohr)
 Number     Number              X              Y              Z
 -------------------------------------------------------------------
      1        6           0.000014651    0.000061312   -0.000000458
      2        6          -0.000049718    0.000058680   -0.000000381
      3        6          -0.000018043    0.000068877   -0.000001998
      4        6           0.000063875   -0.000107108    0.000000237
      5        6          -0.000028109   -0.000103138    0.000000765
      6        6           0.000017846    0.000021411    0.000000894
      7        1          -0.000007740   -0.000023352    0.000000210
      8        1           0.000033339   -0.000009287    0.000000499
      9        1           0.000018994   -0.000002423    0.000000924
     10        1          -0.000000975    0.000028450    0.000000112
     11        1          -0.000025036    0.000013966   -0.000000371
     12        1          -0.000019085   -0.000007388   -0.000000435
 -------------------------------------------------------------------
 Cartesian Forces:  Max     0.000107108 RMS     0.000036111

 GradGradGradGradGradGradGradGradGradGradGradGradGradGradGradGradGradGrad
 Berny optimization.
 Using GEDIIS/GDIIS optimizer.
 FormGI is forming the generalized inverse of G from B-inverse, IUseBI=4.
 Internal  Forces:  Max     0.000092055 RMS     0.000022798
 Search for a local minimum.
 Step number   3 out of a maximum of   64
 All quantities printed in internal units (Hartrees-Bohrs-Radians)
 Mixed Optimization -- En-DIIS/RFO-DIIS
 Swapping is turned off.
 Update second derivatives using D2CorX and points    1    2    3
 DE=  2.05D-05 DEPred=-1.30D-06 R=-1.58D+01
 Trust test=-1.58D+01 RLast= 2.39D-03 DXMaxT set to 1.50D-01
 ITU= -1  1  0
     Eigenvalues ---    0.02152   0.02153   0.02154   0.02154   0.02155
     Eigenvalues ---    0.02155   0.02156   0.02156   0.02157   0.15920
     Eigenvalues ---    0.16000   0.16000   0.16000   0.16000   0.16032
     Eigenvalues ---    0.21991   0.22000   0.22344   0.33708   0.33715
     Eigenvalues ---    0.33719   0.33722   0.33724   0.33980   0.42102
     Eigenvalues ---    0.42119   0.43676   0.46456   0.46461   0.53734
 En-DIIS/RFO-DIIS IScMMF=        0 using points:     3    2
 RFO step:  Lambda=-4.53984439D-08.
 DidBck=F Rises=F RFO-DIIS coefs:    0.94851    0.05149
 Iteration  1 RMS(Cart)=  0.00008770 RMS(Int)=  0.00000000
 Iteration  2 RMS(Cart)=  0.00000000 RMS(Int)=  0.00000000
 Variable       Old X    -DE/DX   Delta X   Delta X   Delta X     New X
                                 (Linear)    (Quad)   (Total)
    R1        2.63456   0.00000  -0.00003   0.00005   0.00001   2.63458
    R2        2.63451  -0.00005  -0.00005  -0.00002  -0.00007   2.63444
    R3        2.05141   0.00002  -0.00002   0.00010   0.00008   2.05149
    R4        2.63446  -0.00002  -0.00005   0.00004  -0.00002   2.63444
    R5        2.05144   0.00002  -0.00002   0.00010   0.00008   2.05152
    R6        2.63470  -0.00009  -0.00004  -0.00013  -0.00017   2.63453
    R7        2.05144   0.00002  -0.00002   0.00009   0.00007   2.05150
    R8        2.63437   0.00005  -0.00004   0.00016   0.00011   2.63448
    R9        2.05141   0.00002  -0.00002   0.00010   0.00008   2.05149
   R10        2.63465  -0.00006  -0.00004  -0.00007  -0.00011   2.63454
   R11        2.05144   0.00002  -0.00002   0.00010   0.00008   2.05152
   R12        2.05144   0.00002  -0.00002   0.00008   0.00007   2.05150
    A1        2.09428   0.00001   0.00000   0.00002   0.00002   2.09430
    A2        2.09442   0.00000  -0.00001   0.00001   0.00000   2.09443
    A3        2.09448   0.00000   0.00000  -0.00003  -0.00002   2.09446
    A4        2.09442   0.00003   0.00001   0.00012   0.00013   2.09455
    A5        2.09423   0.00000   0.00000   0.00005   0.00004   2.09428
    A6        2.09453  -0.00003   0.00000  -0.00017  -0.00017   2.09436
    A7        2.09448  -0.00004  -0.00001  -0.00014  -0.00015   2.09433
    A8        2.09432   0.00001   0.00001   0.00000   0.00002   2.09434
    A9        2.09438   0.00003   0.00000   0.00013   0.00013   2.09451
   A10        2.09428   0.00001   0.00000   0.00002   0.00002   2.09430
   A11        2.09435   0.00001   0.00000   0.00004   0.00004   2.09439
   A12        2.09455  -0.00001   0.00000  -0.00006  -0.00006   2.09449
   A13        2.09442   0.00003   0.00001   0.00012   0.00013   2.09455
   A14        2.09436  -0.00001   0.00000  -0.00002  -0.00002   2.09434
   A15        2.09441  -0.00002  -0.00001  -0.00010  -0.00011   2.09430
   A16        2.09448  -0.00004  -0.00001  -0.00014  -0.00015   2.09433
   A17        2.09450   0.00002   0.00000   0.00007   0.00007   2.09458
   A18        2.09420   0.00002   0.00001   0.00007   0.00008   2.09427
    D1        0.00000   0.00000   0.00000   0.00000   0.00000   0.00000
    D2       -3.14158   0.00000   0.00000  -0.00002  -0.00002   3.14159
    D3        3.14159   0.00000  -0.00001   0.00002   0.00001  -3.14159
    D4        0.00001   0.00000   0.00000  -0.00001  -0.00001   0.00000
    D5        0.00000   0.00000   0.00000   0.00001   0.00000   0.00000
    D6       -3.14158   0.00000   0.00000  -0.00001  -0.00001   3.14159
    D7       -3.14159   0.00000   0.00000   0.00000  -0.00001  -3.14159
    D8        0.00002   0.00000   0.00001  -0.00002  -0.00002   0.00000
    D9       -0.00001   0.00000   0.00001  -0.00001   0.00000   0.00000
   D10       -3.14157   0.00000   0.00001  -0.00003  -0.00002   3.14159
   D11        3.14158   0.00000   0.00001   0.00001   0.00002  -3.14159
   D12        0.00001   0.00000   0.00000  -0.00001  -0.00001   0.00000
   D13        0.00001   0.00000  -0.00001   0.00000   0.00000   0.00000
   D14       -3.14158   0.00000  -0.00001   0.00000  -0.00001  -3.14159
   D15        3.14157   0.00000   0.00000   0.00003   0.00002  -3.14159
   D16       -0.00002   0.00000   0.00000   0.00002   0.00002   0.00000
   D17        0.00000   0.00000   0.00000   0.00001   0.00000   0.00000
   D18        3.14158   0.00000   0.00001   0.00000   0.00001   3.14159
   D19        3.14159   0.00000   0.00000   0.00001   0.00001  -3.14159
   D20       -0.00001   0.00000   0.00001   0.00001   0.00001   0.00000
   D21        0.00000   0.00000   0.00001  -0.00001   0.00000   0.00000
   D22        3.14158   0.00000   0.00000   0.00001   0.00001   3.14159
   D23       -3.14159   0.00000   0.00000  -0.00001  -0.00001  -3.14159
   D24        0.00000   0.00000  -0.00001   0.00001   0.00000   0.00000
         Item               Value     Threshold  Converged?
 Maximum Force            0.000092     0.000450     YES
 RMS     Force            0.000023     0.000300     YES
 Maximum Displacement     0.000229     0.001800     YES
 RMS     Displacement     0.000088     0.001200     YES
 Predicted change in Energy=-3.834358D-08
 Optimization completed.
    -- Stationary point found.
                           ----------------------------
                           !   Optimized Parameters   !
                           ! (Angstroms and Degrees)  !
 --------------------------                            --------------------------
 ! Name  Definition              Value          Derivative Info.                !
 --------------------------------------------------------------------------------
 ! R1    R(1,2)                  1.3942         -DE/DX =    0.0                 !
 ! R2    R(1,6)                  1.3941         -DE/DX =    0.0                 !
 ! R3    R(1,7)                  1.0856         -DE/DX =    0.0                 !
 ! R4    R(2,3)                  1.3941         -DE/DX =    0.0                 !
 ! R5    R(2,8)                  1.0856         -DE/DX =    0.0                 !
 ! R6    R(3,4)                  1.3942         -DE/DX =   -0.0001              !
 ! R7    R(3,9)                  1.0856         -DE/DX =    0.0                 !
 ! R8    R(4,5)                  1.394          -DE/DX =    0.0                 !
 ! R9    R(4,10)                 1.0856         -DE/DX =    0.0                 !
 ! R10   R(5,6)                  1.3942         -DE/DX =   -0.0001              !
 ! R11   R(5,11)                 1.0856         -DE/DX =    0.0                 !
 ! R12   R(6,12)                 1.0856         -DE/DX =    0.0                 !
 ! A1    A(2,1,6)              119.9934         -DE/DX =    0.0                 !
 ! A2    A(2,1,7)              120.0016         -DE/DX =    0.0                 !
 ! A3    A(6,1,7)              120.005          -DE/DX =    0.0                 !
 ! A4    A(1,2,3)              120.0015         -DE/DX =    0.0                 !
 ! A5    A(1,2,8)              119.9908         -DE/DX =    0.0                 !
 ! A6    A(3,2,8)              120.0077         -DE/DX =    0.0                 !
 ! A7    A(2,3,4)              120.0051         -DE/DX =    0.0                 !
 ! A8    A(2,3,9)              119.9959         -DE/DX =    0.0                 !
 ! A9    A(4,3,9)              119.999          -DE/DX =    0.0                 !
 ! A10   A(3,4,5)              119.9934         -DE/DX =    0.0                 !
 ! A11   A(3,4,10)             119.9977         -DE/DX =    0.0                 !
 ! A12   A(5,4,10)             120.009          -DE/DX =    0.0                 !
 ! A13   A(4,5,6)              120.0015         -DE/DX =    0.0                 !
 ! A14   A(4,5,11)             119.9979         -DE/DX =    0.0                 !
 ! A15   A(6,5,11)             120.0006         -DE/DX =    0.0                 !
 ! A16   A(1,6,5)              120.0051         -DE/DX =    0.0                 !
 ! A17   A(1,6,12)             120.0062         -DE/DX =    0.0                 !
 ! A18   A(5,6,12)             119.9886         -DE/DX =    0.0                 !
 ! D1    D(6,1,2,3)              0.0003         -DE/DX =    0.0                 !
 ! D2    D(6,1,2,8)            180.0009         -DE/DX =    0.0                 !
 ! D3    D(7,1,2,3)           -180.0002         -DE/DX =    0.0                 !
 ! D4    D(7,1,2,8)              0.0005         -DE/DX =    0.0                 !
 ! D5    D(2,1,6,5)             -0.0001         -DE/DX =    0.0                 !
 ! D6    D(2,1,6,12)           180.0005         -DE/DX =    0.0                 !
 ! D7    D(7,1,6,5)           -179.9996         -DE/DX =    0.0                 !
 ! D8    D(7,1,6,12)             0.0009         -DE/DX =    0.0                 !
 ! D9    D(1,2,3,4)             -0.0004         -DE/DX =    0.0                 !
 ! D10   D(1,2,3,9)            180.0012         -DE/DX =    0.0                 !
 ! D11   D(8,2,3,4)           -180.001          -DE/DX =    0.0                 !
 ! D12   D(8,2,3,9)              0.0006         -DE/DX =    0.0                 !
 ! D13   D(2,3,4,5)              0.0003         -DE/DX =    0.0                 !
 ! D14   D(2,3,4,10)          -179.9995         -DE/DX =    0.0                 !
 ! D15   D(9,3,4,5)           -180.0013         -DE/DX =    0.0                 !
 ! D16   D(9,3,4,10)            -0.0011         -DE/DX =    0.0                 !
 ! D17   D(3,4,5,6)             -0.0001         -DE/DX =    0.0                 !
 ! D18   D(3,4,5,11)           179.9995         -DE/DX =    0.0                 !
 ! D19   D(10,4,5,6)          -180.0003         -DE/DX =    0.0                 !
 ! D20   D(10,4,5,11)           -0.0007         -DE/DX =    0.0                 !
 ! D21   D(4,5,6,1)              0.0            -DE/DX =    0.0                 !
 ! D22   D(4,5,6,12)           179.9994         -DE/DX =    0.0                 !
 ! D23   D(11,5,6,1)          -179.9996         -DE/DX =    0.0                 !
 ! D24   D(11,5,6,12)           -0.0001         -DE/DX =    0.0                 !
 --------------------------------------------------------------------------------
 GradGradGradGradGradGradGradGradGradGradGradGradGradGradGradGradGradGrad

                          Input orientation:                          
 ---------------------------------------------------------------------
 Center     Atomic      Atomic             Coordinates (Angstroms)
 Number     Number       Type             X           Y           Z
 ---------------------------------------------------------------------
      1          6           0        0.312690    0.185092    0.000061
      2          6           0        1.706840    0.185121    0.000508
      3          6           0        2.403895    1.392439   -0.000038
      4          6           0        1.706897    2.599939   -0.001041
      5          6           0        0.312849    2.599910   -0.001491
      6          6           0       -0.384256    1.392503   -0.000939
      7          1           0       -0.230097   -0.755027    0.000484
      8          1           0        2.249496   -0.755092    0.001273
      9          1           0        3.489469    1.392354    0.000291
     10          1           0        2.249805    3.539988   -0.001475
     11          1           0       -0.229924    3.540055   -0.002263
     12          1           0       -1.469831    1.392725   -0.001280
 ---------------------------------------------------------------------
                    Distance matrix (angstroms):
                    1          2          3          4          5
     1  C    0.000000
     2  C    1.394150   0.000000
     3  C    2.414710   1.394096   0.000000
     4  C    2.788423   2.414819   1.394225   0.000000
     5  C    2.414818   2.788265   2.414634   1.394048   0.000000
     6  C    1.394122   2.414634   2.788151   2.414710   1.394198
     7  H    1.085561   2.153045   3.398459   3.873983   3.398587
     8  H    2.152944   1.085576   2.153074   3.398625   3.873841
     9  H    3.398442   2.152947   1.085574   2.153096   3.398398
    10  H    3.873983   3.398522   2.153070   1.085560   2.153031
    11  H    3.398560   3.873841   3.398420   2.152927   1.085577
    12  H    2.153081   3.398462   3.873726   3.398377   2.152962
                    6          7          8          9         10
     6  C    0.000000
     7  H    2.153057   0.000000
     8  H    3.398356   2.479594   0.000000
     9  H    3.873726   4.294930   2.479729   0.000000
    10  H    3.398525   4.959543   4.295081   2.479738   0.000000
    11  H    2.153091   4.295083   4.959418   4.294940   2.479729
    12  H    1.085574   2.479875   4.294941   4.959300   4.294931
                   11         12
    11  H    0.000000
    12  H    2.479596   0.000000
 Stoichiometry    C6H6
 Framework group  C1[X(C6H6)]
 Deg. of freedom    30
 Full point group                 C1      NOp   1
 Largest Abelian subgroup         C1      NOp   1
 Largest concise Abelian subgroup C1      NOp   1
                         Standard orientation:                         
 ---------------------------------------------------------------------
 Center     Atomic      Atomic             Coordinates (Angstroms)
 Number     Number       Type             X           Y           Z
 ---------------------------------------------------------------------
      1          6           0       -1.303160    0.495580    0.000001
      2          6           0       -1.080719   -0.880710    0.000001
      3          6           0        0.222339   -1.376231    0.000005
      4          6           0        1.303181   -0.495525    0.000000
      5          6           0        1.080756    0.880665   -0.000002
      6          6           0       -0.222398    1.376222   -0.000001
      7          1           0       -2.317831    0.881436   -0.000005
      8          1           0       -1.922319   -1.566411   -0.000011
      9          1           0        0.395440   -2.447916   -0.000014
     10          1           0        2.317802   -0.881510   -0.000005
     11          1           0        1.922271    1.566470    0.000003
     12          1           0       -0.395363    2.447928    0.000006
 ---------------------------------------------------------------------
 Rotational constants (GHZ):      5.7069636      5.7060666      2.8532575

 **********************************************************************

            Population analysis using the SCF density.

 **********************************************************************

 Orbital symmetries:
       Occupied  (A) (A) (A) (A) (A) (A) (A) (A) (A) (A) (A) (A)
                 (A) (A) (A) (A) (A) (A) (A) (A) (A)
       Virtual   (A) (A) (A) (A) (A) (A) (A) (A) (A) (A) (A) (A)
                 (A) (A) (A) (A) (A) (A) (A) (A) (A) (A) (A) (A)
                 (A) (A) (A) (A) (A) (A) (A) (A) (A) (A) (A) (A)
                 (A) (A) (A) (A) (A) (A) (A) (A) (A) (A) (A) (A)
                 (A) (A) (A) (A) (A) (A) (A) (A) (A) (A) (A) (A)
                 (A) (A) (A) (A) (A) (A) (A) (A) (A) (A) (A) (A)
                 (A) (A) (A) (A) (A) (A) (A) (A) (A) (A) (A) (A)
                 (A) (A) (A) (A) (A) (A) (A) (A) (A) (A) (A) (A)
                 (A) (A) (A) (A) (A) (A) (A) (A) (A) (A) (A) (A)
                 (A) (A) (A)
 The electronic state is 1-A.
 Alpha  occ. eigenvalues --  -10.17846 -10.17818 -10.17818 -10.17760 -10.17759
 Alpha  occ. eigenvalues --  -10.17731  -0.85619  -0.74807  -0.74804  -0.60517
 Alpha  occ. eigenvalues --   -0.60516  -0.52738  -0.46483  -0.44932  -0.42565
 Alpha  occ. eigenvalues --   -0.42561  -0.36885  -0.34837  -0.34835  -0.25543
 Alpha  occ. eigenvalues --   -0.25541
 Alpha virt. eigenvalues --   -0.00805  -0.00803   0.04199   0.07701   0.07702
 Alpha virt. eigenvalues --    0.11083   0.11083   0.13597   0.15077   0.26959
 Alpha virt. eigenvalues --    0.26962   0.28450   0.28450   0.30288   0.34901
 Alpha virt. eigenvalues --    0.39057   0.39183   0.39185   0.41513   0.42398
 Alpha virt. eigenvalues --    0.43886   0.43887   0.44725   0.44727   0.52554
 Alpha virt. eigenvalues --    0.52556   0.53561   0.57959   0.57961   0.60445
 Alpha virt. eigenvalues --    0.60657   0.60660   0.66185   0.66267   0.71565
 Alpha virt. eigenvalues --    0.71568   0.71988   0.71991   0.79709   0.83393
 Alpha virt. eigenvalues --    0.83398   0.84494   0.97737   0.97742   1.01501
 Alpha virt. eigenvalues --    1.02282   1.18295   1.20446   1.20451   1.23575
 Alpha virt. eigenvalues --    1.23578   1.26563   1.44509   1.45365   1.45373
 Alpha virt. eigenvalues --    1.47231   1.63380   1.63386   1.77057   1.77065
 Alpha virt. eigenvalues --    1.79126   1.79130   1.90393   1.90399   1.91922
 Alpha virt. eigenvalues --    1.91927   1.92528   1.96590   2.18708   2.19885
 Alpha virt. eigenvalues --    2.19888   2.21756   2.21760   2.29835   2.29843
 Alpha virt. eigenvalues --    2.34719   2.44364   2.53391   2.64632   2.68104
 Alpha virt. eigenvalues --    2.68105   2.81050   2.81052   2.83176   2.83179
 Alpha virt. eigenvalues --    2.93357   2.96287   2.96289   3.02933   3.04139
 Alpha virt. eigenvalues --    3.10952   3.10954   3.20567   3.25170   3.28308
 Alpha virt. eigenvalues --    3.28314   3.29215   3.29218   3.59387   3.99966
 Alpha virt. eigenvalues --    3.99973   4.16228   4.16233   4.37585   4.78631
 Alpha virt. eigenvalues --   26.38640  26.39679  26.39684  26.55214  26.55218
 Alpha virt. eigenvalues --   26.84845
          Condensed to atoms (all electrons):
               1          2          3          4          5          6
     1  C    4.944139   0.526881  -0.046565  -0.038173  -0.046556   0.526941
     2  C    0.526881   4.944030   0.526962  -0.046556  -0.038184  -0.046573
     3  C   -0.046565   0.526962   4.944227   0.526862  -0.046573  -0.038203
     4  C   -0.038173  -0.046556   0.526862   4.944138   0.526961  -0.046565
     5  C   -0.046556  -0.038184  -0.046573   0.526961   4.944029   0.526882
     6  C    0.526941  -0.046573  -0.038203  -0.046565   0.526882   4.944227
     7  H    0.399246  -0.044678   0.006612  -0.000256   0.006611  -0.044679
     8  H   -0.044702   0.399230  -0.044679   0.006611  -0.000256   0.006615
     9  H    0.006613  -0.044685   0.399239  -0.044683   0.006613  -0.000256
    10  H   -0.000256   0.006611  -0.044685   0.399246  -0.044672   0.006612
    11  H    0.006611  -0.000256   0.006615  -0.044697   0.399230  -0.044685
    12  H   -0.044678   0.006613  -0.000256   0.006613  -0.044690   0.399239
               7          8          9         10         11         12
     1  C    0.399246  -0.044702   0.006613  -0.000256   0.006611  -0.044678
     2  C   -0.044678   0.399230  -0.044685   0.006611  -0.000256   0.006613
     3  C    0.006612  -0.044679   0.399239  -0.044685   0.006615  -0.000256
     4  C   -0.000256   0.006611  -0.044683   0.399246  -0.044697   0.006613
     5  C    0.006611  -0.000256   0.006613  -0.044672   0.399230  -0.044690
     6  C   -0.044679   0.006615  -0.000256   0.006612  -0.044685   0.399239
     7  H    0.501653  -0.006660  -0.000382   0.000083  -0.000382  -0.006661
     8  H   -0.006660   0.501707  -0.006662  -0.000382   0.000083  -0.000383
     9  H   -0.000382  -0.006662   0.501680  -0.006660  -0.000383   0.000083
    10  H    0.000083  -0.000382  -0.006660   0.501653  -0.006662  -0.000382
    11  H   -0.000382   0.000083  -0.000383  -0.006662   0.501707  -0.006661
    12  H   -0.006661  -0.000383   0.000083  -0.000382  -0.006661   0.501680
 Mulliken charges:
               1
     1  C   -0.189502
     2  C   -0.189396
     3  C   -0.189557
     4  C   -0.189501
     5  C   -0.189396
     6  C   -0.189557
     7  H    0.189494
     8  H    0.189478
     9  H    0.189482
    10  H    0.189494
    11  H    0.189478
    12  H    0.189482
 Sum of Mulliken charges =   0.00000
 Mulliken charges with hydrogens summed into heavy atoms:
               1
     1  C   -0.000008
     2  C    0.000082
     3  C   -0.000075
     4  C   -0.000007
     5  C    0.000082
     6  C   -0.000074
 Electronic spatial extent (au):  <R**2>=            458.3905
 Charge=              0.0000 electrons
 Dipole moment (field-independent basis, Debye):
    X=              0.0000    Y=              0.0000    Z=              0.0000  Tot=              0.0000
 Quadrupole moment (field-independent basis, Debye-Ang):
   XX=            -31.6994   YY=            -31.7017   ZZ=            -39.8587
   XY=             -0.0001   XZ=              0.0000   YZ=              0.0001
 Traceless Quadrupole moment (field-independent basis, Debye-Ang):
   XX=              2.7205   YY=              2.7182   ZZ=             -5.4387
   XY=             -0.0001   XZ=              0.0000   YZ=              0.0001
 Octapole moment (field-independent basis, Debye-Ang**2):
  XXX=             -0.0014  YYY=              0.0007  ZZZ=              0.0000  XYY=              0.0014
  XXY=             -0.0007  XXZ=             -0.0001  XZZ=              0.0000  YZZ=              0.0000
  YYZ=             -0.0001  XYZ=              0.0000
 Hexadecapole moment (field-independent basis, Debye-Ang**3):
 XXXX=           -272.2532 YYYY=           -272.2361 ZZZZ=            -45.5504 XXXY=             -0.0027
 XXXZ=              0.0001 YYYX=              0.0014 YYYZ=              0.0005 ZZZX=              0.0000
 ZZZY=              0.0001 XXYY=            -90.7500 XXZZ=            -63.1933 YYZZ=            -63.1875
 XXYZ=              0.0001 YYXZ=              0.0000 ZZXY=              0.0000
 N-N= 2.035338787996D+02 E-N=-9.454209458008D+02  KE= 2.310097114417D+02
 1\1\GINC-STALINUX1\FOpt\RB3LYP\6-311G(d)\C6H6\STANGER\22-Oct-2020\0\\#
  b3lyp/6-311g(d) 6d opt freq\\benzene-4-anuja\\0,1\C,0.3126898801,0.18
 50921049,0.0000607416\C,1.7068398142,0.1851206534,0.0005084757\C,2.403
 8946359,1.3924390062,-0.0000383318\C,1.7068972872,2.5999388758,-0.0010
 412375\C,0.3128494276,2.5999098111,-0.0014906111\C,-0.3842564027,1.392
 5034256,-0.0009394303\H,-0.2300974351,-0.7550267378,0.000483803\H,2.24
 94963321,-0.7550917858,0.0012727746\H,3.4894690719,1.3923543766,0.0002
 905995\H,2.2498049572,3.5399880244,-0.0014748072\H,-0.2299235616,3.540
 0551543,-0.0022626217\H,-1.4698306869,1.3927247712,-0.0012803547\\Vers
 ion=EM64L-G09RevD.01\State=1-A\HF=-232.3011927\RMSD=4.690e-09\RMSF=3.6
 11e-05\Dipole=0.0000008,0.0000009,-0.0000078\Quadrupole=2.0209969,2.02
 25582,-4.0435551,0.0003152,0.0018933,-0.0038663\PG=C01 [X(C6H6)]\\@


 IN NATURE THERE ARE NEITHER REWARDS OR
 PUNISHMENTS -- THERE ARE CONSEQUENCES.

                            -- ROBERT GREEN INGERSOLL
 Job cpu time:       0 days  0 hours  3 minutes 43.5 seconds.
 File lengths (MBytes):  RWF=     10 Int=      0 D2E=      0 Chk=      2 Scr=      1
 Normal termination of Gaussian 09 at Thu Oct 22 12:14:05 2020.
 Link1:  Proceeding to internal job step number  2.
 ---------------------------------------------------------------------
 #N Geom=AllCheck Guess=TCheck SCRF=Check GenChk RB3LYP/6-311G(d) Freq
 ---------------------------------------------------------------------
 1/10=4,29=7,30=1,38=1,40=1/1,3;
 2/12=2,40=1/2;
 3/5=4,6=6,7=1,8=2,11=2,14=-4,16=1,25=1,30=1,70=2,71=2,74=-5,116=1,140=1/1,2,3;
 4/5=101/1;
 5/5=2,98=1/2;
 8/6=4,10=90,11=11/1;
 11/6=1,8=1,9=11,15=111,16=1/1,2,10;
 10/6=1/2;
 6/7=2,8=2,9=2,10=2,18=1,28=1/1;
 7/8=1,10=1,25=1/1,2,3,16;
 1/10=4,30=1/3;
 99//99;
 Structure from the checkpoint file:  "/home/stanger/chk/benzene-4-anuja.chk"
 ---------------
 benzene-4-anuja
 ---------------
 Charge =  0 Multiplicity = 1
 Redundant internal coordinates found in file.
 C,0,0.3126898801,0.1850921049,0.0000607416
 C,0,1.7068398142,0.1851206534,0.0005084757
 C,0,2.4038946359,1.3924390062,-0.0000383318
 C,0,1.7068972872,2.5999388758,-0.0010412375
 C,0,0.3128494276,2.5999098111,-0.0014906111
 C,0,-0.3842564027,1.3925034256,-0.0009394303
 H,0,-0.2300974351,-0.7550267378,0.000483803
 H,0,2.2494963321,-0.7550917858,0.0012727746
 H,0,3.4894690719,1.3923543766,0.0002905995
 H,0,2.2498049572,3.5399880244,-0.0014748072
 H,0,-0.2299235616,3.5400551543,-0.0022626217
 H,0,-1.4698306869,1.3927247712,-0.0012803547
 Recover connectivity data from disk.

 GradGradGradGradGradGradGradGradGradGradGradGradGradGradGradGradGradGrad
 Berny optimization.
 Initialization pass.
                           ----------------------------
                           !    Initial Parameters    !
                           ! (Angstroms and Degrees)  !
 --------------------------                            --------------------------
 ! Name  Definition              Value          Derivative Info.                !
 --------------------------------------------------------------------------------
 ! R1    R(1,2)                  1.3942         calculate D2E/DX2 analytically  !
 ! R2    R(1,6)                  1.3941         calculate D2E/DX2 analytically  !
 ! R3    R(1,7)                  1.0856         calculate D2E/DX2 analytically  !
 ! R4    R(2,3)                  1.3941         calculate D2E/DX2 analytically  !
 ! R5    R(2,8)                  1.0856         calculate D2E/DX2 analytically  !
 ! R6    R(3,4)                  1.3942         calculate D2E/DX2 analytically  !
 ! R7    R(3,9)                  1.0856         calculate D2E/DX2 analytically  !
 ! R8    R(4,5)                  1.394          calculate D2E/DX2 analytically  !
 ! R9    R(4,10)                 1.0856         calculate D2E/DX2 analytically  !
 ! R10   R(5,6)                  1.3942         calculate D2E/DX2 analytically  !
 ! R11   R(5,11)                 1.0856         calculate D2E/DX2 analytically  !
 ! R12   R(6,12)                 1.0856         calculate D2E/DX2 analytically  !
 ! A1    A(2,1,6)              119.9934         calculate D2E/DX2 analytically  !
 ! A2    A(2,1,7)              120.0016         calculate D2E/DX2 analytically  !
 ! A3    A(6,1,7)              120.005          calculate D2E/DX2 analytically  !
 ! A4    A(1,2,3)              120.0015         calculate D2E/DX2 analytically  !
 ! A5    A(1,2,8)              119.9908         calculate D2E/DX2 analytically  !
 ! A6    A(3,2,8)              120.0077         calculate D2E/DX2 analytically  !
 ! A7    A(2,3,4)              120.0051         calculate D2E/DX2 analytically  !
 ! A8    A(2,3,9)              119.9959         calculate D2E/DX2 analytically  !
 ! A9    A(4,3,9)              119.999          calculate D2E/DX2 analytically  !
 ! A10   A(3,4,5)              119.9934         calculate D2E/DX2 analytically  !
 ! A11   A(3,4,10)             119.9977         calculate D2E/DX2 analytically  !
 ! A12   A(5,4,10)             120.009          calculate D2E/DX2 analytically  !
 ! A13   A(4,5,6)              120.0015         calculate D2E/DX2 analytically  !
 ! A14   A(4,5,11)             119.9979         calculate D2E/DX2 analytically  !
 ! A15   A(6,5,11)             120.0006         calculate D2E/DX2 analytically  !
 ! A16   A(1,6,5)              120.0051         calculate D2E/DX2 analytically  !
 ! A17   A(1,6,12)             120.0062         calculate D2E/DX2 analytically  !
 ! A18   A(5,6,12)             119.9886         calculate D2E/DX2 analytically  !
 ! D1    D(6,1,2,3)              0.0003         calculate D2E/DX2 analytically  !
 ! D2    D(6,1,2,8)           -179.9991         calculate D2E/DX2 analytically  !
 ! D3    D(7,1,2,3)            179.9998         calculate D2E/DX2 analytically  !
 ! D4    D(7,1,2,8)              0.0005         calculate D2E/DX2 analytically  !
 ! D5    D(2,1,6,5)             -0.0001         calculate D2E/DX2 analytically  !
 ! D6    D(2,1,6,12)          -179.9995         calculate D2E/DX2 analytically  !
 ! D7    D(7,1,6,5)           -179.9996         calculate D2E/DX2 analytically  !
 ! D8    D(7,1,6,12)             0.0009         calculate D2E/DX2 analytically  !
 ! D9    D(1,2,3,4)             -0.0004         calculate D2E/DX2 analytically  !
 ! D10   D(1,2,3,9)           -179.9988         calculate D2E/DX2 analytically  !
 ! D11   D(8,2,3,4)            179.999          calculate D2E/DX2 analytically  !
 ! D12   D(8,2,3,9)              0.0006         calculate D2E/DX2 analytically  !
 ! D13   D(2,3,4,5)              0.0003         calculate D2E/DX2 analytically  !
 ! D14   D(2,3,4,10)          -179.9995         calculate D2E/DX2 analytically  !
 ! D15   D(9,3,4,5)            179.9987         calculate D2E/DX2 analytically  !
 ! D16   D(9,3,4,10)            -0.0011         calculate D2E/DX2 analytically  !
 ! D17   D(3,4,5,6)             -0.0001         calculate D2E/DX2 analytically  !
[...]
    R2        2.63451  -0.00005   0.00000  -0.00004  -0.00004   2.63447
    R3        2.05141   0.00002   0.00000   0.00007   0.00007   2.05148
    R4        2.63446  -0.00002   0.00000   0.00002   0.00002   2.63448
    R5        2.05144   0.00002   0.00000   0.00008   0.00008   2.05152
    R6        2.63470  -0.00009   0.00000  -0.00023  -0.00023   2.63447
    R7        2.05144   0.00002   0.00000   0.00005   0.00005   2.05149
    R8        2.63437   0.00005   0.00000   0.00014   0.00014   2.63450
    R9        2.05141   0.00002   0.00000   0.00007   0.00007   2.05148
   R10        2.63465  -0.00006   0.00000  -0.00017  -0.00017   2.63448
   R11        2.05144   0.00002   0.00000   0.00008   0.00008   2.05152
   R12        2.05144   0.00002   0.00000   0.00005   0.00005   2.05149
    A1        2.09428   0.00001   0.00000   0.00001   0.00001   2.09429
    A2        2.09442   0.00000   0.00000  -0.00003  -0.00003   2.09440
    A3        2.09448   0.00000   0.00000   0.00001   0.00001   2.09450
    A4        2.09442   0.00003   0.00000   0.00015   0.00015   2.09457
    A5        2.09423   0.00000   0.00000   0.00006   0.00006   2.09429
    A6        2.09453  -0.00003   0.00000  -0.00021  -0.00021   2.09432
    A7        2.09448  -0.00004   0.00000  -0.00016  -0.00016   2.09432
    A8        2.09432   0.00001   0.00000  -0.00004  -0.00004   2.09428
    A9        2.09438   0.00003   0.00000   0.00020   0.00020   2.09458
   A10        2.09428   0.00001   0.00000   0.00001   0.00001   2.09429
   A11        2.09435   0.00001   0.00000   0.00014   0.00014   2.09450
   A12        2.09455  -0.00001   0.00000  -0.00015  -0.00015   2.09440
   A13        2.09442   0.00003   0.00000   0.00015   0.00015   2.09457
   A14        2.09436  -0.00001   0.00000  -0.00007  -0.00007   2.09429
   A15        2.09441  -0.00002   0.00000  -0.00008  -0.00008   2.09432
   A16        2.09448  -0.00004   0.00000  -0.00016  -0.00016   2.09432
   A17        2.09450   0.00002   0.00000   0.00008   0.00008   2.09458
   A18        2.09420   0.00002   0.00000   0.00009   0.00009   2.09428
    D1        0.00000   0.00000   0.00000   0.00000   0.00000   0.00000
    D2       -3.14158   0.00000   0.00000  -0.00002  -0.00002   3.14159
    D3        3.14159   0.00000   0.00000   0.00000   0.00000   3.14159
    D4        0.00001   0.00000   0.00000  -0.00001  -0.00001   0.00000
    D5        0.00000   0.00000   0.00000   0.00000   0.00000   0.00000
    D6       -3.14158   0.00000   0.00000  -0.00001  -0.00001   3.14159
    D7       -3.14159   0.00000   0.00000  -0.00001  -0.00001   3.14159
    D8        0.00002   0.00000   0.00000  -0.00002  -0.00002   0.00000
    D9       -0.00001   0.00000   0.00000   0.00001   0.00001   0.00000
   D10       -3.14157   0.00000   0.00000  -0.00002  -0.00002   3.14159
   D11        3.14158   0.00000   0.00000   0.00002   0.00002  -3.14159
   D12        0.00001   0.00000   0.00000  -0.00001  -0.00001   0.00000
   D13        0.00001   0.00000   0.00000  -0.00001  -0.00001   0.00000
   D14       -3.14158   0.00000   0.00000  -0.00001  -0.00001   3.14159
   D15        3.14157   0.00000   0.00000   0.00002   0.00002   3.14159
   D16       -0.00002   0.00000   0.00000   0.00002   0.00002   0.00000
   D17        0.00000   0.00000   0.00000   0.00000   0.00000   0.00000
   D18        3.14158   0.00000   0.00000   0.00001   0.00001   3.14159
   D19        3.14159   0.00000   0.00000   0.00000   0.00000  -3.14159
   D20       -0.00001   0.00000   0.00000   0.00001   0.00001   0.00000
   D21        0.00000   0.00000   0.00000   0.00000   0.00000   0.00000
   D22        3.14158   0.00000   0.00000   0.00001   0.00001  -3.14159
   D23       -3.14159   0.00000   0.00000  -0.00001  -0.00001  -3.14159
   D24        0.00000   0.00000   0.00000   0.00000   0.00000   0.00000
         Item               Value     Threshold  Converged?
 Maximum Force            0.000092     0.000450     YES
 RMS     Force            0.000023     0.000300     YES
 Maximum Displacement     0.000273     0.001800     YES
 RMS     Displacement     0.000100     0.001200     YES
 Predicted change in Energy=-4.518807D-08
 Optimization completed.
    -- Stationary point found.
                           ----------------------------
                           !   Optimized Parameters   !
                           ! (Angstroms and Degrees)  !
 --------------------------                            --------------------------
 ! Name  Definition              Value          Derivative Info.                !
 --------------------------------------------------------------------------------
 ! R1    R(1,2)                  1.3942         -DE/DX =    0.0                 !
 ! R2    R(1,6)                  1.3941         -DE/DX =    0.0                 !
 ! R3    R(1,7)                  1.0856         -DE/DX =    0.0                 !
 ! R4    R(2,3)                  1.3941         -DE/DX =    0.0                 !
 ! R5    R(2,8)                  1.0856         -DE/DX =    0.0                 !
 ! R6    R(3,4)                  1.3942         -DE/DX =   -0.0001              !
 ! R7    R(3,9)                  1.0856         -DE/DX =    0.0                 !
 ! R8    R(4,5)                  1.394          -DE/DX =    0.0                 !
 ! R9    R(4,10)                 1.0856         -DE/DX =    0.0                 !
 ! R10   R(5,6)                  1.3942         -DE/DX =   -0.0001              !
 ! R11   R(5,11)                 1.0856         -DE/DX =    0.0                 !
 ! R12   R(6,12)                 1.0856         -DE/DX =    0.0                 !
 ! A1    A(2,1,6)              119.9934         -DE/DX =    0.0                 !
 ! A2    A(2,1,7)              120.0016         -DE/DX =    0.0                 !
 ! A3    A(6,1,7)              120.005          -DE/DX =    0.0                 !
 ! A4    A(1,2,3)              120.0015         -DE/DX =    0.0                 !
 ! A5    A(1,2,8)              119.9908         -DE/DX =    0.0                 !
 ! A6    A(3,2,8)              120.0077         -DE/DX =    0.0                 !
 ! A7    A(2,3,4)              120.0051         -DE/DX =    0.0                 !
 ! A8    A(2,3,9)              119.9959         -DE/DX =    0.0                 !
 ! A9    A(4,3,9)              119.999          -DE/DX =    0.0                 !
 ! A10   A(3,4,5)              119.9934         -DE/DX =    0.0                 !
 ! A11   A(3,4,10)             119.9977         -DE/DX =    0.0                 !
 ! A12   A(5,4,10)             120.009          -DE/DX =    0.0                 !
 ! A13   A(4,5,6)              120.0015         -DE/DX =    0.0                 !
 ! A14   A(4,5,11)             119.9979         -DE/DX =    0.0                 !
 ! A15   A(6,5,11)             120.0006         -DE/DX =    0.0                 !
 ! A16   A(1,6,5)              120.0051         -DE/DX =    0.0                 !
 ! A17   A(1,6,12)             120.0062         -DE/DX =    0.0                 !
 ! A18   A(5,6,12)             119.9886         -DE/DX =    0.0                 !
 ! D1    D(6,1,2,3)              0.0003         -DE/DX =    0.0                 !
 ! D2    D(6,1,2,8)            180.0009         -DE/DX =    0.0                 !
 ! D3    D(7,1,2,3)            179.9998         -DE/DX =    0.0                 !
 ! D4    D(7,1,2,8)              0.0005         -DE/DX =    0.0                 !
 ! D5    D(2,1,6,5)             -0.0001         -DE/DX =    0.0                 !
 ! D6    D(2,1,6,12)           180.0005         -DE/DX =    0.0                 !
 ! D7    D(7,1,6,5)            180.0004         -DE/DX =    0.0                 !
 ! D8    D(7,1,6,12)             0.0009         -DE/DX =    0.0                 !
 ! D9    D(1,2,3,4)             -0.0004         -DE/DX =    0.0                 !
 ! D10   D(1,2,3,9)            180.0012         -DE/DX =    0.0                 !
 ! D11   D(8,2,3,4)           -180.001          -DE/DX =    0.0                 !
 ! D12   D(8,2,3,9)              0.0006         -DE/DX =    0.0                 !
 ! D13   D(2,3,4,5)              0.0003         -DE/DX =    0.0                 !
 ! D14   D(2,3,4,10)           180.0005         -DE/DX =    0.0                 !
 ! D15   D(9,3,4,5)            179.9987         -DE/DX =    0.0                 !
 ! D16   D(9,3,4,10)            -0.0011         -DE/DX =    0.0                 !
 ! D17   D(3,4,5,6)             -0.0001         -DE/DX =    0.0                 !
 ! D18   D(3,4,5,11)           179.9995         -DE/DX =    0.0                 !
 ! D19   D(10,4,5,6)          -180.0003         -DE/DX =    0.0                 !
 ! D20   D(10,4,5,11)           -0.0007         -DE/DX =    0.0                 !
 ! D21   D(4,5,6,1)              0.0            -DE/DX =    0.0                 !
 ! D22   D(4,5,6,12)          -180.0006         -DE/DX =    0.0                 !
 ! D23   D(11,5,6,1)          -179.9996         -DE/DX =    0.0                 !
 ! D24   D(11,5,6,12)           -0.0001         -DE/DX =    0.0                 !
 --------------------------------------------------------------------------------
 GradGradGradGradGradGradGradGradGradGradGradGradGradGradGradGradGradGrad

 1\1\GINC-STALINUX1\Freq\RB3LYP\6-311G(d)\C6H6\STANGER\22-Oct-2020\0\\#
 N Geom=AllCheck Guess=TCheck SCRF=Check GenChk RB3LYP/6-311G(d) Freq\\
 benzene-4-anuja\\0,1\C,0.3126898801,0.1850921049,0.0000607416\C,1.7068
 398142,0.1851206534,0.0005084757\C,2.4038946359,1.3924390062,-0.000038
 3318\C,1.7068972872,2.5999388758,-0.0010412375\C,0.3128494276,2.599909
 8111,-0.0014906111\C,-0.3842564027,1.3925034256,-0.0009394303\H,-0.230
 0974351,-0.7550267378,0.000483803\H,2.2494963321,-0.7550917858,0.00127
 27746\H,3.4894690719,1.3923543766,0.0002905995\H,2.2498049572,3.539988
 0244,-0.0014748072\H,-0.2299235616,3.5400551543,-0.0022626217\H,-1.469
 8306869,1.3927247712,-0.0012803547\\Version=EM64L-G09RevD.01\State=1-A
 \HF=-232.3011927\RMSD=3.118e-09\RMSF=3.612e-05\ZeroPoint=0.1000847\The
 rmal=0.1044885\Dipole=-0.0000002,-0.0000017,-0.0000078\DipoleDeriv=-0.
 0188264,0.0919078,-0.0000195,0.0920827,0.0872929,-0.0001133,-0.0000155
 ,-0.0001116,-0.1367493,-0.0191461,-0.0920994,0.0000958,-0.0921604,0.08
 72239,-0.00017,0.0000978,-0.0001682,-0.1368166,0.1404504,0.0000738,0.0
 000851,-0.00001,-0.0720342,-0.0000419,0.0000712,-0.0000429,-0.1368111,
 -0.0188308,0.0919174,-0.0000206,0.0920689,0.0872945,-0.0001159,-0.0000
 159,-0.0001169,-0.1367497,-0.0191493,-0.0921087,0.0000971,-0.0921465,0
 .0872271,-0.0001726,0.0000963,-0.0001678,-0.1368168,0.1404505,0.000089
 3,0.0000871,-0.0000172,-0.0720339,-0.0000421,0.0000811,-0.0000441,-0.1
 368108,0.0170009,-0.08843,0.0000181,-0.0885511,-0.0852536,0.0001133,0.
 0000158,0.0001121,0.1367869,0.016952,0.0885394,-0.0000944,0.0885597,-0
 .0853297,0.0001693,-0.0000939,0.0001664,0.1367594,-0.1364059,-0.000004
 ,-0.0000856,0.0000623,0.0680762,0.000044,-0.0000767,0.0000446,0.136830
 8,0.0169794,-0.0884578,0.0000186,-0.0885479,-0.085231,0.0001146,0.0000
 173,0.0001158,0.136787,0.0169309,0.0885666,-0.000095,0.0885571,-0.0853
 084,0.0001705,-0.0000943,0.0001677,0.1367594,-0.1364057,0.0000056,-0.0
 000868,0.0001025,0.0680762,0.0000441,-0.0000832,0.0000448,0.1368307\Po
 lar=74.2268175,0.0016548,74.2319793,0.014712,-0.029414,28.360464\PG=C0
 1 [X(C6H6)]\NImag=0\\0.67743107,0.03434307,0.71712193,0.00015426,-0.00
 036331,0.13116179,-0.33055192,-0.03223996,-0.00006593,0.67679569,0.032
 56254,-0.13058558,0.00005431,-0.03462667,0.71700865,-0.00010701,0.0000
 3330,-0.06163317,0.00019551,-0.00038267,0.13111610,-0.02758323,-0.0298
 2874,0.00000718,-0.18033076,-0.11896885,0.00003826,0.73665648,-0.07837
 367,0.03492344,-0.00004161,-0.05414976,-0.28076302,0.00012191,0.000095
 46,0.65755028,0.00003847,-0.00002580,0.00901615,-0.00000285,0.00010182
 ,-0.06158674,0.00018888,-0.00033763,0.13114723,-0.05305975,0.03029848,
 -0.00003342,0.06618932,0.02434512,0.00000258,-0.18057945,0.05401580,-0
 .00007249,0.67764286,0.03029639,-0.01820688,0.00001534,-0.02418250,-0.
 05855655,0.00003553,0.11883871,-0.28051854,0.00017919,0.03446586,0.716
 90924,-0.00003350,0.00001541,-0.00932386,0.00003380,0.00005104,0.00894
 490,-0.00011454,0.00015885,-0.06170909,0.00015302,-0.00036668,0.131161
 37,0.06618930,-0.02418499,0.00003390,-0.05311687,-0.03041670,0.0000053
 8,-0.02731180,0.07834763,-0.00006192,-0.33078690,-0.03223778,-0.000066
 05,0.67700760,0.02434277,-0.05855665,0.00005109,-0.03041488,-0.0180708
 8,-0.00000405,0.02982760,0.03491753,-0.00000734,0.03256058,-0.13057610
 ,0.00005489,-0.03474851,0.71679737,0.00000268,0.00003549,0.00894493,0.
 00000542,-0.00000400,-0.00934735,-0.00003082,0.00000849,0.00899600,-0.
 00010762,0.00003384,-0.06161483,0.00019692,-0.00038572,0.13111613,-0.1
 8063167,0.11894235,-0.00011465,-0.02731401,0.02982633,-0.00003066,-0.0
 0067632,0.00002719,0.00000262,-0.02758107,-0.02982999,0.00000742,-0.18
 027926,-0.11886551,0.00003835,0.73665759,0.05412350,-0.28069277,0.0001
 5803,0.07834647,0.03491969,0.00000864,0.00002515,-0.07058443,0.0000392
 6,-0.07837489,0.03492125,-0.00004182,-0.05404258,-0.28058957,0.0001230
 2,-0.00014865,0.65755114,-0.00007295,0.00017890,-0.06169109,-0.0000618
 3,-0.00000719,0.00899610,0.00000261,0.00003931,-0.00932161,0.00003856,
 -0.00002607,0.00901611,-0.00000313,0.00010246,-0.06160481,0.00019225,-
 0.00033794,0.13114735,-0.12863729,-0.11856573,0.00004524,-0.01054988,-
 0.02930663,0.00001447,-0.00562261,0.00143220,-0.00000492,-0.00074912,0
 .00085087,-0.00000071,-0.00083060,0.00320916,-0.00000459,0.01207832,0.
 01487475,-0.00000638,0.13279526,-0.11854200,-0.26537081,0.00010848,0.0
 0180518,0.00372104,-0.00000026,0.00043456,0.00184221,0.00000340,0.0008
 4700,0.00023272,-0.00000003,0.00420378,-0.00293433,0.00000764,-0.01626
 577,-0.01893111,0.00000838,0.12827660,0.28080304,0.00004538,0.00010813
 ,-0.03498402,-0.00000550,-0.00001033,0.00240818,-0.00000428,0.00000387
 ,0.00694151,-0.00000061,-0.00000008,-0.00023987,-0.00000530,0.00000729
 ,0.00694825,0.00001348,0.00001877,0.00243547,-0.00004680,-0.00012164,0
 .02487830,-0.01058210,0.02934448,-0.00002274,-0.12857262,0.11847398,-0
 .00010441,0.01207315,-0.01486727,0.00001250,-0.00083386,-0.00320381,-0
 .00000041,-0.00074702,-0.00085282,0.00000039,-0.00562456,-0.00143229,-
 0.00000307,0.00091196,-0.00049218,0.00000181,0.13277113,-0.00178719,0.
 00371953,-0.00000139,0.11847964,-0.26533082,0.00018284,0.01625697,-0.0
 1892939,0.00001868,-0.00419613,-0.00294201,0.00000492,-0.00085291,0.00
 024052,-0.00000058,-0.00043953,0.00184363,0.00000304,0.00048985,0.0008
 3353,-0.00000278,-0.12822438,0.28076645,-0.00000321,0.00000863,0.00242
 603,-0.00010409,0.00018267,-0.03498200,-0.00000726,0.00000877,0.002404
 19,0.00000020,0.00000537,0.00694620,0.00000043,-0.00000057,-0.00023888
 ,-0.00000379,0.00000271,0.00694537,0.00000122,-0.00000313,-0.00384018,
 0.00011512,-0.00020210,0.02488672,0.00078176,-0.00326457,0.00000021,-0
 .01176887,0.00249624,-0.00000596,-0.33380266,0.00003219,-0.00009104,-0
 .01177449,-0.00249189,-0.00000277,0.00079693,0.00325845,-0.00000394,0.
 00072333,-0.00000156,0.00000032,-0.00070951,0.00016759,-0.00000043,0.0
 0085238,-0.00045688,0.00000171,0.35485235,-0.00226836,-0.00456524,0.00
 000663,-0.02863600,0.00492022,-0.00001045,0.00002471,-0.06011110,0.000
 01610,0.02865223,0.00492307,0.00000727,0.00226817,-0.00456833,0.000008
 12,0.00000105,-0.00123871,0.00000064,-0.00142462,0.00001604,-0.0000002
 8,0.00052339,0.00089061,-0.00000285,-0.00003509,0.05868129,-0.00000054
 ,0.00000621,0.00694807,0.00001364,-0.00000088,0.00243004,-0.00009016,0
 .00001598,-0.03503032,-0.00002326,-0.00000219,0.00243110,-0.00000334,0
 .00000859,0.00694457,0.00000034,0.00000060,-0.00024042,0.00000057,0.00
 000024,0.00032171,0.00000114,-0.00000311,-0.00382939,0.00010064,-0.000
 02170,0.02489024,-0.00074927,0.00085058,-0.00000071,-0.00083087,0.0032
 0927,-0.00000456,0.01207719,0.01487456,-0.00000651,-0.12866668,-0.1185
 8438,0.00004654,-0.01054926,-0.02930559,0.00001474,-0.00562137,0.00143
 264,-0.00000493,0.00008233,-0.00010136,0.00000053,0.00037917,0.0007968
 1,-0.00000049,0.00085214,-0.00053162,0.00000184,0.13282405,0.00084713,
 0.00023286,-0.00000004,0.00420388,-0.00293576,0.00000770,-0.01626702,-
 0.01893238,0.00000858,-0.11855811,-0.26534151,0.00011088,0.00180508,0.
 00372283,-0.00000028,0.00043500,0.00184270,0.00000347,-0.00010126,-0.0
 0003476,-0.00000090,-0.00079654,-0.00107318,0.00000065,0.00046306,0.00
 089556,-0.00000291,0.12829361,0.28077431,-0.00000064,-0.00000008,-0.00
 023991,-0.00000529,0.00000728,0.00694518,0.00001357,0.00001880,0.00243
 461,0.00004684,0.00011075,-0.03498384,-0.00000553,-0.00001034,0.002408
 90,-0.00000430,0.00000384,0.00694464,0.00000054,-0.00000088,-0.0013646
 1,0.00000054,0.00000116,0.00032307,0.00000111,-0.00000320,-0.00382548,
 -0.00004823,-0.00012423,0.02487821,-0.00083415,-0.00320393,-0.00000044
 ,-0.00074717,-0.00085253,0.00000039,-0.00562333,-0.00143273,-0.0000030
 6,-0.01058155,0.02934363,-0.00002296,-0.12860146,0.11849169,-0.0001054
 4,0.01207204,-0.01486706,0.00001261,0.00037917,-0.00079651,0.00000053,
 0.00008236,0.00010143,0.00000040,-0.00071000,0.00142610,-0.00000127,0.
 00091210,-0.00049243,0.00000182,0.13279947,-0.00419623,-0.00294342,0.0
 0000496,-0.00085302,0.00024067,-0.00000058,-0.00043997,0.00184412,0.00
 000310,-0.00178701,0.00372121,-0.00000141,0.11849498,-0.26530211,0.000
 18467,0.01625810,-0.01893053,0.00001884,0.00079683,-0.00107318,0.00000
 115,0.00010133,-0.00003457,-0.00000082,-0.00016768,0.00001572,0.000000
 14,0.00049009,0.00083327,-0.00000282,-0.12824062,0.28073826,0.00000023
 ,0.00000537,0.00694312,0.00000046,-0.00000057,-0.00023891,-0.00000379,
 0.00000265,0.00694849,-0.00000328,0.00000873,0.00242686,-0.00010513,0.
 00018452,-0.03498210,-0.00000736,0.00000889,0.00240330,-0.00000051,0.0
 0000066,0.00032307,0.00000040,-0.00000080,-0.00136432,-0.00000023,0.00
 000069,0.00032320,0.00000121,-0.00000319,-0.00384250,0.00011624,-0.000
 20408,0.02488685,-0.01177274,-0.00249103,-0.00000290,0.00079797,0.0032
 5790,-0.00000400,0.00072334,-0.00000160,0.00000032,0.00078071,-0.00326
 510,0.00000016,-0.01177065,0.00249707,-0.00000609,-0.33380302,0.000064
 52,-0.00009407,0.00085199,0.00046311,0.00000117,-0.00070998,-0.0001676
 7,-0.00000023,-0.00009335,0.00000004,0.00000040,-0.00070953,0.00016761
 ,-0.00000044,0.00085254,-0.00045680,0.00000176,0.35485273,0.02865206,0
 .00492359,0.00000751,0.00226762,-0.00456767,0.00000810,0.00000143,-0.0
 0123871,0.00000064,-0.00226891,-0.00456590,0.00000668,-0.02863618,0.00
 491972,-0.00001069,0.00005942,-0.06011129,0.00001615,-0.00053202,0.000
 89561,-0.00000320,0.00142611,0.00001571,0.00000067,0.00000015,0.000140
 85,-0.00000097,-0.00142460,0.00001607,-0.00000027,0.00052298,0.0008905
 6,-0.00000287,-0.00006806,0.05868148,-0.00002317,-0.00000226,0.0024319
 5,-0.00000333,0.00000852,0.00694767,0.00000034,0.00000060,-0.00024041,
 -0.00000052,0.00000628,0.00694494,0.00001378,-0.00000082,0.00242919,-0
 .00009371,0.00001600,-0.03503040,0.00000186,-0.00000286,-0.00382780,-0
 .00000127,0.00000014,0.00032320,0.00000039,-0.00000097,-0.00136331,0.0
 0000056,0.00000025,0.00032171,0.00000116,-0.00000315,-0.00382708,0.000
 10392,-0.00002174,0.02489033\\-0.00001470,-0.00006135,0.00000046,0.000
 04981,-0.00005867,0.00000038,0.00001803,-0.00006881,0.00000200,-0.0000
 6395,0.00010711,-0.00000024,0.00002822,0.00010319,-0.00000076,-0.00001
 786,-0.00002135,-0.00000090,0.00000772,0.00002333,-0.00000021,-0.00003
 334,0.00000927,-0.00000050,-0.00001900,0.00000241,-0.00000093,0.000000
 96,-0.00002849,-0.00000011,0.00002504,-0.00001400,0.00000037,0.0000190
 6,0.00000737,0.00000043\\\@


 TOWERING GENIUS DISDAINS A BEATEN PATH.  IT SEEKS 
 REGIONS HITHERTO UNEXPLORED.

                                -- ABRAHAM LINCOLN
 Job cpu time:       0 days  0 hours  5 minutes  5.0 seconds.
 File lengths (MBytes):  RWF=     26 Int=      0 D2E=      0 Chk=      3 Scr=      1
 Normal termination of Gaussian 09 at Thu Oct 22 12:14:29 2020.
