 Entering Gaussian System, Link 0=/usr/local/g09/g09
 Input=/home/stanger/input/benzene-4-anuja-z-scan-sigma-center1.in
 Output=/home/stanger/output/benzene-4-anuja-z-scan-sigma-center1.log
 Initial command:
 /usr/local/g09/l1.exe "/gtmp/Gau-20844.inp" -scrdir="/gtmp/"
 Entering Link 1 = /usr/local/g09/l1.exe PID=     20846.
  
 Copyright (c) 1988,1990,1992,1993,1995,1998,2003,2009,2013,
            Gaussian, Inc.  All Rights Reserved.
  
 This is part of the Gaussian(R) 09 program.  It is based on
 the Gaussian(R) 03 system (copyright 2003, Gaussian, Inc.),
 the Gaussian(R) 98 system (copyright 1998, Gaussian, Inc.),
 the Gaussian(R) 94 system (copyright 1995, Gaussian, Inc.),
 the Gaussian 92(TM) system (copyright 1992, Gaussian, Inc.),
 the Gaussian 90(TM) system (copyright 1990, Gaussian, Inc.),
 the Gaussian 88(TM) system (copyright 1988, Gaussian, Inc.),
 the Gaussian 86(TM) system (copyright 1986, Carnegie Mellon
 University), and the Gaussian 82(TM) system (copyright 1983,
 Carnegie Mellon University). Gaussian is a federally registered
 trademark of Gaussian, Inc.
  
 This software contains proprietary and confidential information,
 including trade secrets, belonging to Gaussian, Inc.
  
 This software is provided under written license and may be
 used, copied, transmitted, or stored only in accord with that
 written license.
  
 The following legend is applicable only to US Government
 contracts under FAR:
  
                    RESTRICTED RIGHTS LEGEND
  
 Use, reproduction and disclosure by the US Government is
 subject to restrictions as set forth in subparagraphs (a)
 and (c) of the Commercial Computer Software - Restricted
 Rights clause in FAR 52.227-19.
  
 Gaussian, Inc.
 340 Quinnipiac St., Bldg. 40, Wallingford CT 06492
  
  
 ---------------------------------------------------------------
 Warning -- This program may not be used in any manner that
 competes with the business of Gaussian, Inc. or will provide
 assistance to any competitor of Gaussian, Inc.  The licensee
 of this program is prohibited from giving any competitor of
 Gaussian, Inc. access to this program.  By using this program,
 the user acknowledges that Gaussian, Inc. is engaged in the
 business of creating and licensing software in the field of
 computational chemistry and represents and warrants to the
 licensee that it is not a competitor of Gaussian, Inc. and that
 it will not use this program in any manner prohibited above.
 ---------------------------------------------------------------
  

 Cite this work as:
 Gaussian 09, Revision D.01,
 M. J. Frisch, G. W. Trucks, H. B. Schlegel, G. E. Scuseria, 
 M. A. Robb, J. R. Cheeseman, G. Scalmani, V. Barone, B. Mennucci, 
 G. A. Petersson, H. Nakatsuji, M. Caricato, X. Li, H. P. Hratchian, 
 A. F. Izmaylov, J. Bloino, G. Zheng, J. L. Sonnenberg, M. Hada, 
 M. Ehara, K. Toyota, R. Fukuda, J. Hasegawa, M. Ishida, T. Nakajima, 
 Y. Honda, O. Kitao, H. Nakai, T. Vreven, J. A. Montgomery, Jr., 
 J. E. Peralta, F. Ogliaro, M. Bearpark, J. J. Heyd, E. Brothers, 
 K. N. Kudin, V. N. Staroverov, T. Keith, R. Kobayashi, J. Normand, 
 K. Raghavachari, A. Rendell, J. C. Burant, S. S. Iyengar, J. Tomasi, 
 M. Cossi, N. Rega, J. M. Millam, M. Klene, J. E. Knox, J. B. Cross, 
 V. Bakken, C. Adamo, J. Jaramillo, R. Gomperts, R. E. Stratmann, 
 O. Yazyev, A. J. Austin, R. Cammi, C. Pomelli, J. W. Ochterski, 
 R. L. Martin, K. Morokuma, V. G. Zakrzewski, G. A. Voth, 
 P. Salvador, J. J. Dannenberg, S. Dapprich, A. D. Daniels, 
 O. Farkas, J. B. Foresman, J. V. Ortiz, J. Cioslowski, 
 and D. J. Fox, Gaussian, Inc., Wallingford CT, 2013.
 
 ******************************************
 Gaussian 09:  EM64L-G09RevD.01 24-Apr-2013
                22-Oct-2020 
 ******************************************
 %NPROC=16
 Will use up to   16 processors via shared memory.
 %MEM=31744MB
 ----------------------------------------------------------------------
 # B3LYP/6-311+G* SCF=MAXCYCLE=2000 NMR=GIAO INTEGRAL=(GRID=ULTRAFINE) 
 CPHF=(GRID=FINE)
 ----------------------------------------------------------------------
 1/38=1/1;
 2/12=2,17=6,18=5,40=1/2;
 3/5=4,6=6,7=11,11=2,16=1,25=1,30=1,74=-5,75=-5/1,2,8,3;
 4//1;
 5/5=2,7=2000,38=5,96=4/2;
 8/6=1,10=90,11=11/1;
 10/13=100,45=16,60=4/2;
 6/7=2,8=2,9=2,10=2,28=1/1;
 99/9=1/99;
 -------------------------------------------
 -------------------------------- # Center 1
 -------------------------------------------
 Symbolic Z-matrix:
 Charge =  0 Multiplicity = 1
 6                    -1.20739   0.69715   0. 
 6                    -1.20739  -0.697     0. 
 6                    -0.00009  -1.39408   0. 
 6                     1.20742  -0.6971    0. 
 6                     1.20742   0.69695   0. 
 6                     0.00003   1.39408   0. 
 1                     0.00028   2.47965   0. 
 1                     2.14758   1.2397    0. 
 1                     2.14746  -1.24003   0. 
 1                    -0.0002   -2.47965   0.00002 
 1                    -2.14762  -1.23963   0. 
 1                    -2.1475    1.23996   0. 
 1                    -1.28287   0.74074  -0.9962 
 1                    -1.28288  -0.74057  -0.9962 
 1                    -0.00009  -1.48123  -0.99619 
 1                     1.2829   -0.74068  -0.9962 
 1                     1.28291   0.74051  -0.9962 
 1                     0.00004   1.48123  -0.9962 
 bq                    0.        0.        0. 
 bq                    0.        0.        0.1 
 bq                    0.        0.        0.2 
 bq                    0.        0.        0.3 
 bq                    0.        0.        0.4 
 bq                    0.        0.        0.5 
 bq                    0.        0.        0.6 
 bq                    0.        0.        0.7 
 bq                    0.        0.        0.8 
 bq                    0.        0.        0.9 
 bq                    0.        0.        1. 
 bq                    0.        0.        1.1 
 bq                    0.        0.        1.2 
 bq                    0.        0.        1.3 
 bq                    0.        0.        1.4 
 bq                    0.        0.        1.5 
 bq                    0.        0.        1.6 
 bq                    0.        0.        1.7 
 bq                    0.        0.        1.8 
 bq                    0.        0.        1.9 
 bq                    0.        0.        2. 
 bq                    0.        0.        2.1 
 bq                    0.        0.        2.2 
 bq                    0.        0.        2.3 
 bq                    0.        0.        2.4 
 bq                    0.        0.        2.5 
 bq                    0.        0.        2.6 
 bq                    0.        0.        2.7 
 bq                    0.        0.        2.8 
 bq                    0.        0.        2.9 
 bq                    0.        0.        3. 
 bq                    0.        0.        3.1 
 bq                    0.        0.        3.2 
 bq                    0.        0.        3.3 
 bq                    0.        0.        3.4 
 bq                    0.        0.        3.5 
 bq                    0.        0.        3.6 
 bq                    0.        0.        3.7 
 bq                    0.        0.        3.8 
 bq                    0.        0.        3.9 
 
 Symmetry turned off:
 Cannot cope with ghost atoms or with translation vectors.
 Stoichiometry    C6H12
 Framework group  C1[X(C6H12)]
 NUMDOF-- NAT=    18 NAtoms=    58
 Deg. of freedom     0
 Full point group                 C1      NOp   1
                          Input orientation:                          
 ---------------------------------------------------------------------
 Center     Atomic      Atomic             Coordinates (Angstroms)
 Number     Number       Type             X           Y           Z
 ---------------------------------------------------------------------
      1          6           0       -1.207390    0.697150    0.000000
      2          6           0       -1.207390   -0.697000    0.000000
      3          6           0       -0.000090   -1.394080    0.000000
      4          6           0        1.207420   -0.697100    0.000000
      5          6           0        1.207420    0.696950    0.000000
      6          6           0        0.000030    1.394080    0.000000
      7          1           0        0.000280    2.479650    0.000000
      8          1           0        2.147580    1.239700    0.000000
      9          1           0        2.147460   -1.240030    0.000000
     10          1           0       -0.000200   -2.479650    0.000020
     11          1           0       -2.147620   -1.239630    0.000000
     12          1           0       -2.147500    1.239960    0.000000
     13          1           0       -1.282870    0.740740   -0.996200
     14          1           0       -1.282880   -0.740570   -0.996200
     15          1           0       -0.000090   -1.481230   -0.996190
     16          1           0        1.282900   -0.740680   -0.996200
     17          1           0        1.282910    0.740510   -0.996200
     18          1           0        0.000040    1.481230   -0.996200
     19          0           0        0.000000    0.000000    0.000000
     20          0           0        0.000000    0.000000    0.100000
     21          0           0        0.000000    0.000000    0.200000
     22          0           0        0.000000    0.000000    0.300000
     23          0           0        0.000000    0.000000    0.400000
     24          0           0        0.000000    0.000000    0.500000
     25          0           0        0.000000    0.000000    0.600000
     26          0           0        0.000000    0.000000    0.700000
     27          0           0        0.000000    0.000000    0.800000
     28          0           0        0.000000    0.000000    0.900000
     29          0           0        0.000000    0.000000    1.000000
     30          0           0        0.000000    0.000000    1.100000
     31          0           0        0.000000    0.000000    1.200000
     32          0           0        0.000000    0.000000    1.300000
     33          0           0        0.000000    0.000000    1.400000
     34          0           0        0.000000    0.000000    1.500000
     35          0           0        0.000000    0.000000    1.600000
     36          0           0        0.000000    0.000000    1.700000
     37          0           0        0.000000    0.000000    1.800000
     38          0           0        0.000000    0.000000    1.900000
     39          0           0        0.000000    0.000000    2.000000
     40          0           0        0.000000    0.000000    2.100000
     41          0           0        0.000000    0.000000    2.200000
     42          0           0        0.000000    0.000000    2.300000
     43          0           0        0.000000    0.000000    2.400000
     44          0           0        0.000000    0.000000    2.500000
     45          0           0        0.000000    0.000000    2.600000
     46          0           0        0.000000    0.000000    2.700000
     47          0           0        0.000000    0.000000    2.800000
     48          0           0        0.000000    0.000000    2.900000
     49          0           0        0.000000    0.000000    3.000000
     50          0           0        0.000000    0.000000    3.100000
     51          0           0        0.000000    0.000000    3.200000
     52          0           0        0.000000    0.000000    3.300000
     53          0           0        0.000000    0.000000    3.400000
     54          0           0        0.000000    0.000000    3.500000
     55          0           0        0.000000    0.000000    3.600000
     56          0           0        0.000000    0.000000    3.700000
     57          0           0        0.000000    0.000000    3.800000
     58          0           0        0.000000    0.000000    3.900000
 ---------------------------------------------------------------------
 Rotational constants (GHZ):      5.0157527      5.0150490      2.6544163
 Standard basis: 6-311+G(d) (5D, 7F)
 Warning:  center  19 has no basis functions!
 Warning:  center  20 has no basis functions!
 Warning:  center  21 has no basis functions!
 Warning:  center  22 has no basis functions!
 Warning:  center  23 has no basis functions!
 Warning:  center  24 has no basis functions!
 Warning:  center  25 has no basis functions!
 Warning:  center  26 has no basis functions!
 Warning:  center  27 has no basis functions!
 Warning:  center  28 has no basis functions!
 Warning:  center  29 has no basis functions!
 Warning:  center  30 has no basis functions!
 Warning:  center  31 has no basis functions!
 Warning:  center  32 has no basis functions!
 Warning:  center  33 has no basis functions!
 Warning:  center  34 has no basis functions!
 Warning:  center  35 has no basis functions!
 Warning:  center  36 has no basis functions!
 Warning:  center  37 has no basis functions!
 Warning:  center  38 has no basis functions!
 Warning:  center  39 has no basis functions!
 Warning:  center  40 has no basis functions!
 Warning:  center  41 has no basis functions!
 Warning:  center  42 has no basis functions!
 Warning:  center  43 has no basis functions!
 Warning:  center  44 has no basis functions!
 Warning:  center  45 has no basis functions!
 Warning:  center  46 has no basis functions!
 Warning:  center  47 has no basis functions!
 Warning:  center  48 has no basis functions!
 Warning:  center  49 has no basis functions!
 Warning:  center  50 has no basis functions!
 Warning:  center  51 has no basis functions!
 Warning:  center  52 has no basis functions!
 Warning:  center  53 has no basis functions!
 Warning:  center  54 has no basis functions!
 Warning:  center  55 has no basis functions!
 Warning:  center  56 has no basis functions!
 Warning:  center  57 has no basis functions!
 Warning:  center  58 has no basis functions!
   168 basis functions,   276 primitive gaussians,   174 cartesian basis functions
    24 alpha electrons       24 beta electrons
       nuclear repulsion energy       276.1853351110 Hartrees.
 NAtoms=   58 NActive=   58 NUniq=   58 SFac= 1.00D+00 NAtFMM=   60 NAOKFM=F Big=F
 Integral buffers will be    131072 words long.
 Raffenetti 2 integral format.
 Two-electron integral symmetry is turned off.
 One-electron integrals computed using PRISM.
 NBasis=   168 RedAO= T EigKep=  2.37D-06  NBF=   168
 NBsUse=   168 1.00D-06 EigRej= -1.00D+00 NBFU=   168
 ExpMin= 4.38D-02 ExpMax= 4.56D+03 ExpMxC= 6.82D+02 IAcc=3 IRadAn=         5 AccDes= 0.00D+00
 Harris functional with IExCor=  402 and IRadAn=       5 diagonalized for initial guess.
 HarFok:  IExCor=  402 AccDes= 0.00D+00 IRadAn=         5 IDoV= 1 UseB2=F ITyADJ=14
 ICtDFT=  3500011 ScaDFX=  1.000000  1.000000  1.000000  1.000000
 FoFCou: FMM=F IPFlag=           0 FMFlag=      100000 FMFlg1=           0
         NFxFlg=           0 DoJE=T BraDBF=F KetDBF=T FulRan=T
         wScrn=  0.000000 ICntrl=     500 IOpCl=  0 I1Cent=   200000004 NGrid=           0
         NMat0=    1 NMatS0=      1 NMatT0=    0 NMatD0=    1 NMtDS0=    0 NMtDT0=    0
 Symmetry not used in FoFCou.
 Keep R1 ints in memory in canonical form, NReq=107556204.
 Requested convergence on RMS density matrix=1.00D-08 within2000 cycles.
 Requested convergence on MAX density matrix=1.00D-06.
 Requested convergence on             energy=1.00D-06.
 No special actions if energy rises.
 SCF Done:  E(RB3LYP) =  -235.383521289     A.U. after   14 cycles
            NFock= 14  Conv=0.44D-08     -V/T= 1.9895
 DoSCS=F DFT=T ScalE2(SS,OS)=  1.000000  1.000000
 Range of M.O.s used for correlation:     1   168
 NBasis=   168 NAE=    24 NBE=    24 NFC=     0 NFV=     0
 NROrb=    168 NOA=    24 NOB=    24 NVA=   144 NVB=   144

 **** Warning!!: The largest alpha MO coefficient is  0.13543560D+03

          Differentiating once with respect to magnetic field using GIAOs.
          Electric field/nuclear overlap derivatives assumed to be zero.
 Keep R3 ints in memory in canonical form, NReq=103461779.
 FoFJK:  IHMeth= 1 ICntrl=    6127 DoSepK=F KAlg= 0 I1Cent=   0 FoldK=F
 IRaf=         1 NMat=   1 IRICut=       1 DoRegI=T DoRafI=F ISym2E= 0.
          There are     3 degrees of freedom in the 1st order CPHF.  IDoFFX=0 NUNeed=     3.
      3 vectors produced by pass  0 Test12= 1.15D-13 3.33D-08 XBig12= 2.02D+01 2.77D+00.
 AX will form     3 AO Fock derivatives at one time.
      3 vectors produced by pass  1 Test12= 1.15D-13 3.33D-08 XBig12= 2.03D-02 5.72D-02.
      3 vectors produced by pass  2 Test12= 1.15D-13 3.33D-08 XBig12= 2.15D-05 1.54D-03.
      3 vectors produced by pass  3 Test12= 1.15D-13 3.33D-08 XBig12= 3.04D-08 6.51D-05.
      3 vectors produced by pass  4 Test12= 1.15D-13 3.33D-08 XBig12= 7.84D-11 4.16D-06.
      3 vectors produced by pass  5 Test12= 1.15D-13 3.33D-08 XBig12= 2.51D-13 4.30D-07.
 InvSVY:  IOpt=1 It=  1 EMax= 8.88D-16
 Solved reduced A of dimension    18 with     3 vectors.
 Calculating GIAO nuclear magnetic shielding tensors.
 SCF GIAO Magnetic shielding tensor (ppm):
      1  C    Isotropic =   207.4251   Anisotropy =    33.5956
   XX=   226.5107   YX=     1.9116   ZX=     2.1290
   XY=     1.9071   YY=   228.7213   ZY=    -1.2308
   XZ=     7.5140   YZ=    -4.3505   ZZ=   167.0434
   Eigenvalues:   166.5165   225.9368   229.8222
      2  C    Isotropic =   207.4262   Anisotropy =    33.5880
   XX=   226.5153   YX=    -1.8984   ZX=     2.1307
   XY=    -1.9052   YY=   228.7231   ZY=     1.2337
   XZ=     7.5262   YZ=     4.3428   ZZ=   167.0401
   Eigenvalues:   166.5124   225.9480   229.8182
      3  C    Isotropic =   207.4271   Anisotropy =    33.5772
   XX=   229.8119   YX=    -0.0026   ZX=     0.0041
   XY=    -0.0052   YY=   225.4255   ZY=     2.4649
   XZ=     0.0044   YZ=     8.6967   ZZ=   167.0439
   Eigenvalues:   166.5152   225.9542   229.8119
      4  C    Isotropic =   207.4245   Anisotropy =    33.5964
   XX=   226.5145   YX=     1.9150   ZX=    -2.1319
   XY=     1.9106   YY=   228.7159   ZY=     1.2264
   XZ=    -7.5124   YZ=     4.3531   ZZ=   167.0431
   Eigenvalues:   166.5161   225.9353   229.8221
      5  C    Isotropic =   207.4259   Anisotropy =    33.5871
   XX=   226.5201   YX=    -1.9009   ZX=    -2.1334
   XY=    -1.9070   YY=   228.7179   ZY=    -1.2291
   XZ=    -7.5248   YZ=    -4.3455   ZZ=   167.0399
   Eigenvalues:   166.5121   225.9484   229.8173
      6  C    Isotropic =   207.4268   Anisotropy =    33.5794
   XX=   229.8131   YX=    -0.0062   ZX=     0.0014
   XY=    -0.0099   YY=   225.4238   ZY=    -2.4662
   XZ=    -0.0062   YZ=    -8.6971   ZZ=   167.0436
   Eigenvalues:   166.5147   225.9526   229.8131
      7  H    Isotropic =    31.3522   Anisotropy =    10.3835
   XX=    31.1216   YX=     0.0008   ZX=     0.0001
   XY=     0.0018   YY=    38.2724   ZY=    -0.3279
   XZ=     0.0002   YZ=     0.6699   ZZ=    24.6627
   Eigenvalues:    24.6606    31.1216    38.2746
      8  H    Isotropic =    31.3516   Anisotropy =    10.3842
   XX=    36.4847   YX=     3.0952   ZX=    -0.2832
   XY=     3.0975   YY=    32.9086   ZY=    -0.1631
   XZ=     0.5823   YZ=     0.3351   ZZ=    24.6615
   Eigenvalues:    24.6593    31.1211    38.2744
      9  H    Isotropic =    31.3517   Anisotropy =    10.3844
   XX=    36.4832   YX=    -3.0966   ZX=    -0.2829
   XY=    -3.0989   YY=    32.9093   ZY=     0.1631
   XZ=     0.5826   YZ=    -0.3362   ZZ=    24.6626
   Eigenvalues:    24.6604    31.1201    38.2746
     10  H    Isotropic =    31.3524   Anisotropy =    10.3837
   XX=    31.1217   YX=    -0.0008   ZX=     0.0004
   XY=     0.0013   YY=    38.2726   ZY=     0.3276
   XZ=    -0.0002   YZ=    -0.6701   ZZ=    24.6627
   Eigenvalues:    24.6606    31.1217    38.2748
     11  H    Isotropic =    31.3516   Anisotropy =    10.3843
   XX=    36.4855   YX=     3.0953   ZX=     0.2829
   XY=     3.0966   YY=    32.9078   ZY=     0.1636
   XZ=    -0.5824   YZ=    -0.3350   ZZ=    24.6615
   Eigenvalues:    24.6593    31.1210    38.2744
     12  H    Isotropic =    31.3517   Anisotropy =    10.3845
   XX=    36.4840   YX=    -3.0967   ZX=     0.2826
   XY=    -3.0979   YY=    32.9086   ZY=    -0.1635
   XZ=    -0.5827   YZ=     0.3361   ZZ=    24.6625
   Eigenvalues:    24.6603    31.1201    38.2747
     13  H    Isotropic =    26.3643   Anisotropy =    11.0187
   XX=    19.6414   YX=     6.1432   ZX=     5.2425
   XY=     6.1446   YY=    26.7318   ZY=    -3.0272
   XZ=     1.9926   YZ=    -1.1503   ZZ=    32.7196
   Eigenvalues:    15.1027    30.2800    33.7101
     14  H    Isotropic =    26.3637   Anisotropy =    11.0185
   XX=    19.6396   YX=    -6.1457   ZX=     5.2438
   XY=    -6.1467   YY=    26.7328   ZY=     3.0264
   XZ=     1.9927   YZ=     1.1505   ZZ=    32.7188
   Eigenvalues:    15.0995    30.2822    33.7094
     15  H    Isotropic =    26.3647   Anisotropy =    11.0190
   XX=    30.2848   YX=    -0.0042   ZX=     0.0003
   XY=    -0.0032   YY=    16.0892   ZY=     6.0549
   XZ=     0.0007   YZ=     2.3014   ZZ=    32.7200
   Eigenvalues:    15.0985    30.2848    33.7107
     16  H    Isotropic =    26.3643   Anisotropy =    11.0187
   XX=    19.6366   YX=     6.1411   ZX=    -5.2424
   XY=     6.1416   YY=    26.7366   ZY=     3.0274
   XZ=    -1.9929   YZ=     1.1498   ZZ=    32.7196
   Eigenvalues:    15.1026    30.2801    33.7101
     17  H    Isotropic =    26.3635   Anisotropy =    11.0186
   XX=    19.6347   YX=    -6.1438   ZX=    -5.2437
   XY=    -6.1435   YY=    26.7371   ZY=    -3.0266
   XZ=    -1.9929   YZ=    -1.1499   ZZ=    32.7187
   Eigenvalues:    15.0992    30.2821    33.7093
     18  H    Isotropic =    26.3643   Anisotropy =    11.0192
   XX=    30.2845   YX=     0.0011   ZX=    -0.0007
   XY=     0.0011   YY=    16.0887   ZY=    -6.0549
   XZ=    -0.0003   YZ=    -2.3015   ZZ=    32.7198
   Eigenvalues:    15.0980    30.2845    33.7105
     19  Bq   Isotropic =    -2.4251   Anisotropy =    15.6122
   XX=     7.9771   YX=     0.0011   ZX=     0.0001
   XY=     0.0014   YY=     7.9827   ZY=     0.0001
   XZ=     0.0000   YZ=     0.0000   ZZ=   -23.2352
   Eigenvalues:   -23.2352     7.9768     7.9830
     20  Bq   Isotropic =    -2.3183   Anisotropy =    15.6364
   XX=     8.1000   YX=     0.0010   ZX=     0.0001
   XY=     0.0015   YY=     8.1057   ZY=     0.0001
   XZ=     0.0000   YZ=     0.0000   ZZ=   -23.1606
   Eigenvalues:   -23.1606     8.0997     8.1060
     21  Bq   Isotropic =    -2.3611   Anisotropy =    14.8492
   XX=     7.5326   YX=     0.0009   ZX=     0.0001
   XY=     0.0015   YY=     7.5381   ZY=     0.0001
   XZ=     0.0000   YZ=     0.0000   ZZ=   -22.1540
   Eigenvalues:   -22.1540     7.5324     7.5384
     22  Bq   Isotropic =    -2.4851   Anisotropy =    13.3852
   XX=     6.4331   YX=     0.0008   ZX=     0.0001
   XY=     0.0015   YY=     6.4381   ZY=     0.0001
   XZ=     0.0000   YZ=     0.0000   ZZ=   -20.3265
   Eigenvalues:   -20.3265     6.4329     6.4384
     23  Bq   Isotropic =    -2.6236   Anisotropy =    11.4380
   XX=     4.9971   YX=     0.0006   ZX=     0.0001
   XY=     0.0014   YY=     5.0015   ZY=     0.0001
   XZ=     0.0000   YZ=     0.0000   ZZ=   -17.8695
   Eigenvalues:   -17.8695     4.9969     5.0017
     24  Bq   Isotropic =    -2.7250   Anisotropy =     9.2220
   XX=     3.4190   YX=     0.0004   ZX=     0.0001
   XY=     0.0013   YY=     3.4228   ZY=     0.0001
   XZ=     0.0000   YZ=     0.0000   ZZ=   -15.0169
   Eigenvalues:   -15.0169     3.4188     3.4229
     25  Bq   Isotropic =    -2.7591   Anisotropy =     6.9375
   XX=     1.8626   YX=     0.0002   ZX=     0.0001
   XY=     0.0011   YY=     1.8657   ZY=     0.0001
   XZ=     0.0000   YZ=     0.0000   ZZ=   -12.0057
   Eigenvalues:   -12.0057     1.8625     1.8658
     26  Bq   Isotropic =    -2.7168   Anisotropy =     4.7468
   XX=     0.4451   YX=     0.0001   ZX=     0.0001
   XY=     0.0010   YY=     0.4476   ZY=     0.0001
   XZ=     0.0000   YZ=     0.0000   ZZ=    -9.0431
   Eigenvalues:    -9.0431     0.4450     0.4477
     27  Bq   Isotropic =    -2.6052   Anisotropy =     2.7632
   XX=    -0.7651   YX=     0.0000   ZX=     0.0000
   XY=     0.0008   YY=    -0.7631   ZY=     0.0001
   XZ=     0.0000   YZ=     0.0000   ZZ=    -6.2873
   Eigenvalues:    -6.2873    -0.7652    -0.7631
     28  Bq   Isotropic =    -2.4407   Anisotropy =     1.0516
   XX=    -1.7412   YX=    -0.0001   ZX=     0.0000
   XY=     0.0007   YY=    -1.7396   ZY=     0.0001
   XZ=     0.0000   YZ=     0.0000   ZZ=    -3.8411
   Eigenvalues:    -3.8411    -1.7413    -1.7396
     29  Bq   Isotropic =    -2.2427   Anisotropy =     0.7303
   XX=    -2.4868   YX=    -0.0002   ZX=     0.0000
   XY=     0.0006   YY=    -2.4855   ZY=     0.0001
   XZ=     0.0000   YZ=     0.0000   ZZ=    -1.7559
   Eigenvalues:    -2.4868    -2.4855    -1.7559
     30  Bq   Isotropic =    -2.0295   Anisotropy =     2.9814
   XX=    -3.0238   YX=    -0.0002   ZX=     0.0000
   XY=     0.0005   YY=    -3.0228   ZY=     0.0001
   XZ=     0.0000   YZ=     0.0000   ZZ=    -0.0419
   Eigenvalues:    -3.0239    -3.0228    -0.0419
     31  Bq   Isotropic =    -1.8155   Anisotropy =     4.7021
   XX=    -3.3833   YX=    -0.0002   ZX=     0.0000
   XY=     0.0004   YY=    -3.3824   ZY=     0.0001
   XZ=     0.0000   YZ=     0.0000   ZZ=     1.3193
   Eigenvalues:    -3.3833    -3.3824     1.3193
     32  Bq   Isotropic =    -1.6107   Anisotropy =     5.9615
   XX=    -3.5983   YX=    -0.0002   ZX=     0.0000
   XY=     0.0004   YY=    -3.5975   ZY=     0.0001
   XZ=     0.0000   YZ=     0.0000   ZZ=     2.3636
   Eigenvalues:    -3.5983    -3.5975     2.3636
     33  Bq   Isotropic =    -1.4212   Anisotropy =     6.8346
   XX=    -3.6998   YX=    -0.0002   ZX=     0.0000
   XY=     0.0003   YY=    -3.6991   ZY=     0.0001
   XZ=     0.0000   YZ=     0.0000   ZZ=     3.1352
   Eigenvalues:    -3.6998    -3.6991     3.1352
     34  Bq   Isotropic =    -1.2500   Anisotropy =     7.3944
   XX=    -3.7151   YX=    -0.0002   ZX=     0.0000
   XY=     0.0003   YY=    -3.7145   ZY=     0.0000
   XZ=     0.0000   YZ=     0.0000   ZZ=     3.6796
   Eigenvalues:    -3.7151    -3.7145     3.6796
     35  Bq   Isotropic =    -1.0978   Anisotropy =     7.7066
   XX=    -3.6669   YX=    -0.0002   ZX=     0.0000
   XY=     0.0003   YY=    -3.6663   ZY=     0.0000
   XZ=     0.0000   YZ=     0.0000   ZZ=     4.0400
   Eigenvalues:    -3.6669    -3.6663     4.0400
     36  Bq   Isotropic =    -0.9640   Anisotropy =     7.8280
   XX=    -3.5736   YX=    -0.0002   ZX=     0.0000
   XY=     0.0002   YY=    -3.5730   ZY=     0.0000
   XZ=     0.0000   YZ=     0.0000   ZZ=     4.2546
   Eigenvalues:    -3.5736    -3.5730     4.2546
     37  Bq   Isotropic =    -0.8474   Anisotropy =     7.8057
   XX=    -3.4496   YX=    -0.0001   ZX=     0.0000
   XY=     0.0002   YY=    -3.4491   ZY=     0.0000
   XZ=     0.0000   YZ=     0.0000   ZZ=     4.3564
   Eigenvalues:    -3.4496    -3.4491     4.3564
     38  Bq   Isotropic =    -0.7463   Anisotropy =     7.6783
   XX=    -3.3060   YX=    -0.0001   ZX=     0.0000
   XY=     0.0002   YY=    -3.3055   ZY=     0.0000
   XZ=     0.0000   YZ=     0.0000   ZZ=     4.3726
   Eigenvalues:    -3.3060    -3.3055     4.3726
     39  Bq   Isotropic =    -0.6590   Anisotropy =     7.4762
   XX=    -3.1513   YX=    -0.0001   ZX=     0.0000
   XY=     0.0002   YY=    -3.1508   ZY=     0.0000
   XZ=     0.0000   YZ=     0.0000   ZZ=     4.3251
   Eigenvalues:    -3.1513    -3.1508     4.3251
     40  Bq   Isotropic =    -0.5838   Anisotropy =     7.2231
   XX=    -2.9917   YX=    -0.0001   ZX=     0.0000
   XY=     0.0002   YY=    -2.9914   ZY=     0.0000
   XZ=     0.0000   YZ=     0.0000   ZZ=     4.2316
   Eigenvalues:    -2.9917    -2.9913     4.2316
     41  Bq   Isotropic =    -0.5192   Anisotropy =     6.9376
   XX=    -2.8319   YX=    -0.0001   ZX=     0.0000
   XY=     0.0002   YY=    -2.8316   ZY=     0.0000
   XZ=     0.0000   YZ=     0.0000   ZZ=     4.1058
   Eigenvalues:    -2.8319    -2.8316     4.1058
     42  Bq   Isotropic =    -0.4637   Anisotropy =     6.6333
   XX=    -2.6750   YX=    -0.0001   ZX=     0.0000
   XY=     0.0002   YY=    -2.6747   ZY=     0.0000
   XZ=     0.0000   YZ=     0.0000   ZZ=     3.9585
   Eigenvalues:    -2.6750    -2.6747     3.9585
     43  Bq   Isotropic =    -0.4161   Anisotropy =     6.3206
   XX=    -2.5231   YX=     0.0000   ZX=     0.0000
   XY=     0.0001   YY=    -2.5228   ZY=     0.0000
   XZ=     0.0000   YZ=     0.0000   ZZ=     3.7976
   Eigenvalues:    -2.5231    -2.5228     3.7976
     44  Bq   Isotropic =    -0.3752   Anisotropy =     6.0070
   XX=    -2.3776   YX=     0.0000   ZX=     0.0000
   XY=     0.0001   YY=    -2.3774   ZY=     0.0000
   XZ=     0.0000   YZ=     0.0000   ZZ=     3.6295
   Eigenvalues:    -2.3776    -2.3774     3.6295
     45  Bq   Isotropic =    -0.3400   Anisotropy =     5.6978
   XX=    -2.2393   YX=     0.0000   ZX=     0.0000
   XY=     0.0001   YY=    -2.2391   ZY=     0.0000
   XZ=     0.0000   YZ=     0.0000   ZZ=     3.4586
   Eigenvalues:    -2.2393    -2.2391     3.4586
     46  Bq   Isotropic =    -0.3096   Anisotropy =     5.3968
   XX=    -2.1086   YX=     0.0000   ZX=     0.0000
   XY=     0.0001   YY=    -2.1084   ZY=     0.0000
   XZ=     0.0000   YZ=     0.0000   ZZ=     3.2883
   Eigenvalues:    -2.1086    -2.1084     3.2883
     47  Bq   Isotropic =    -0.2833   Anisotropy =     5.1064
   XX=    -1.9855   YX=     0.0000   ZX=     0.0000
   XY=     0.0001   YY=    -1.9853   ZY=     0.0000
   XZ=     0.0000   YZ=     0.0000   ZZ=     3.1210
   Eigenvalues:    -1.9855    -1.9853     3.1210
     48  Bq   Isotropic =    -0.2604   Anisotropy =     4.8281
   XX=    -1.8698   YX=     0.0000   ZX=     0.0000
   XY=     0.0001   YY=    -1.8697   ZY=     0.0000
   XZ=     0.0000   YZ=     0.0000   ZZ=     2.9584
   Eigenvalues:    -1.8698    -1.8697     2.9584
     49  Bq   Isotropic =    -0.2404   Anisotropy =     4.5630
   XX=    -1.7614   YX=     0.0000   ZX=     0.0000
   XY=     0.0001   YY=    -1.7613   ZY=     0.0000
   XZ=     0.0000   YZ=     0.0000   ZZ=     2.8016
   Eigenvalues:    -1.7614    -1.7613     2.8016
     50  Bq   Isotropic =    -0.2227   Anisotropy =     4.3113
   XX=    -1.6599   YX=     0.0000   ZX=     0.0000
   XY=     0.0001   YY=    -1.6598   ZY=     0.0000
   XZ=     0.0000   YZ=     0.0000   ZZ=     2.6515
   Eigenvalues:    -1.6599    -1.6597     2.6515
     51  Bq   Isotropic =    -0.2071   Anisotropy =     4.0731
   XX=    -1.5648   YX=     0.0000   ZX=     0.0000
   XY=     0.0001   YY=    -1.5648   ZY=     0.0000
   XZ=     0.0000   YZ=     0.0000   ZZ=     2.5083
   Eigenvalues:    -1.5649    -1.5647     2.5083
     52  Bq   Isotropic =    -0.1932   Anisotropy =     3.8482
   XX=    -1.4760   YX=     0.0000   ZX=     0.0000
   XY=     0.0001   YY=    -1.4759   ZY=     0.0000
   XZ=     0.0000   YZ=     0.0000   ZZ=     2.3723
   Eigenvalues:    -1.4760    -1.4759     2.3723
     53  Bq   Isotropic =    -0.1807   Anisotropy =     3.6363
   XX=    -1.3928   YX=     0.0000   ZX=     0.0000
   XY=     0.0001   YY=    -1.3928   ZY=     0.0000
   XZ=     0.0000   YZ=     0.0000   ZZ=     2.2435
   Eigenvalues:    -1.3929    -1.3928     2.2435
     54  Bq   Isotropic =    -0.1695   Anisotropy =     3.4369
   XX=    -1.3151   YX=     0.0000   ZX=     0.0000
   XY=     0.0001   YY=    -1.3150   ZY=     0.0000
   XZ=     0.0000   YZ=     0.0000   ZZ=     2.1218
   Eigenvalues:    -1.3151    -1.3150     2.1218
     55  Bq   Isotropic =    -0.1593   Anisotropy =     3.2494
   XX=    -1.2424   YX=     0.0000   ZX=     0.0000
   XY=     0.0001   YY=    -1.2423   ZY=     0.0000
   XZ=     0.0000   YZ=     0.0000   ZZ=     2.0070
   Eigenvalues:    -1.2424    -1.2423     2.0070
     56  Bq   Isotropic =    -0.1500   Anisotropy =     3.0733
   XX=    -1.1744   YX=     0.0000   ZX=     0.0000
   XY=     0.0001   YY=    -1.1743   ZY=     0.0000
   XZ=     0.0000   YZ=     0.0000   ZZ=     1.8989
   Eigenvalues:    -1.1744    -1.1743     1.8989
     57  Bq   Isotropic =    -0.1415   Anisotropy =     2.9079
   XX=    -1.1108   YX=     0.0000   ZX=     0.0000
   XY=     0.0001   YY=    -1.1107   ZY=     0.0000
   XZ=     0.0000   YZ=     0.0000   ZZ=     1.7971
   Eigenvalues:    -1.1108    -1.1107     1.7971
     58  Bq   Isotropic =    -0.1336   Anisotropy =     2.7527
   XX=    -1.0512   YX=     0.0000   ZX=     0.0000
   XY=     0.0001   YY=    -1.0512   ZY=     0.0000
   XZ=     0.0000   YZ=     0.0000   ZZ=     1.7015
   Eigenvalues:    -1.0513    -1.0512     1.7015
 End of Minotr F.D. properties file   721 does not exist.
 End of Minotr F.D. properties file   722 does not exist.
 End of Minotr F.D. properties file   788 does not exist.

 **********************************************************************

            Population analysis using the SCF density.

 **********************************************************************

 Alpha  occ. eigenvalues --  -10.13119 -10.13100 -10.13100 -10.13047 -10.13047
 Alpha  occ. eigenvalues --  -10.13021  -0.92702  -0.82048  -0.82045  -0.65578
 Alpha  occ. eigenvalues --   -0.65576  -0.55232  -0.50479  -0.50413  -0.44757
 Alpha  occ. eigenvalues --   -0.42966  -0.42964  -0.42240  -0.42237  -0.34333
 Alpha  occ. eigenvalues --   -0.34331  -0.26400  -0.26398  -0.15374
 Alpha virt. eigenvalues --   -0.02989   0.01625   0.01861   0.01861   0.04398
 Alpha virt. eigenvalues --    0.04398   0.05111   0.05971   0.05972   0.07904
 Alpha virt. eigenvalues --    0.10173   0.10419   0.10420   0.11250   0.11251
 Alpha virt. eigenvalues --    0.14389   0.14389   0.15688   0.15809   0.19224
 Alpha virt. eigenvalues --    0.19295   0.19295   0.19699   0.19699   0.20736
 Alpha virt. eigenvalues --    0.20736   0.21014   0.21015   0.22447   0.23101
 Alpha virt. eigenvalues --    0.23102   0.26641   0.26736   0.30763   0.30765
 Alpha virt. eigenvalues --    0.32034   0.32035   0.33662   0.33663   0.36390
 Alpha virt. eigenvalues --    0.41494   0.42075   0.42076   0.43911   0.45136
 Alpha virt. eigenvalues --    0.46442   0.46442   0.47044   0.55794   0.62531
 Alpha virt. eigenvalues --    0.65968   0.65969   0.66923   0.66925   0.67496
 Alpha virt. eigenvalues --    0.70295   0.70299   0.71018   0.72248   0.72249
 Alpha virt. eigenvalues --    0.75718   0.75720   0.79950   0.80089   0.81738
 Alpha virt. eigenvalues --    0.81739   0.84005   0.84006   0.88559   0.89822
 Alpha virt. eigenvalues --    0.90517   0.90518   0.97380   1.01484   1.03444
 Alpha virt. eigenvalues --    1.10610   1.10613   1.13479   1.13481   1.21469
 Alpha virt. eigenvalues --    1.21474   1.23240   1.23242   1.35925   1.41074
 Alpha virt. eigenvalues --    1.49772   1.50112   1.50118   1.56527   1.66558
 Alpha virt. eigenvalues --    1.66563   1.72699   1.72700   1.85383   1.85389
 Alpha virt. eigenvalues --    1.89925   1.89929   1.90727   1.94559   1.94563
 Alpha virt. eigenvalues --    2.02613   2.14625   2.14627   2.27310   2.27313
 Alpha virt. eigenvalues --    2.28875   2.44878   2.44901   2.44902   2.47734
 Alpha virt. eigenvalues --    2.47782   2.57887   2.66328   2.66329   2.74594
 Alpha virt. eigenvalues --    2.74596   2.86377   2.89607   2.89609   2.98882
 Alpha virt. eigenvalues --    3.09762   3.11866   3.11867   3.26306   3.30610
 Alpha virt. eigenvalues --    3.30615   3.32958   3.32961   3.57555   3.58311
 Alpha virt. eigenvalues --    3.58312   3.74289   3.74292   3.79946   4.02893
 Alpha virt. eigenvalues --    4.02899   4.15186   4.74807  23.35649  24.01801
 Alpha virt. eigenvalues --   24.01817  24.12426  24.12442  24.22532
          Condensed to atoms (all electrons):
 Mulliken charges:
               1
     1  C   -0.544563
     2  C   -0.544541
     3  C   -0.544609
     4  C   -0.544568
     5  C   -0.544540
     6  C   -0.544607
     7  H    0.255245
     8  H    0.255244
     9  H    0.255247
    10  H    0.255248
    11  H    0.255244
    12  H    0.255248
    13  H    0.289323
    14  H    0.289325
    15  H    0.289331
    16  H    0.289321
    17  H    0.289325
    18  H    0.289328
    19  Bq   0.000000
    20  Bq   0.000000
    21  Bq   0.000000
    22  Bq   0.000000
    23  Bq   0.000000
    24  Bq   0.000000
    25  Bq   0.000000
    26  Bq   0.000000
    27  Bq   0.000000
    28  Bq   0.000000
    29  Bq   0.000000
    30  Bq   0.000000
    31  Bq   0.000000
    32  Bq   0.000000
    33  Bq   0.000000
    34  Bq   0.000000
    35  Bq   0.000000
    36  Bq   0.000000
    37  Bq   0.000000
    38  Bq   0.000000
    39  Bq   0.000000
    40  Bq   0.000000
    41  Bq   0.000000
    42  Bq   0.000000
    43  Bq   0.000000
    44  Bq   0.000000
    45  Bq   0.000000
    46  Bq   0.000000
    47  Bq   0.000000
    48  Bq   0.000000
    49  Bq   0.000000
    50  Bq   0.000000
    51  Bq   0.000000
    52  Bq   0.000000
    53  Bq   0.000000
    54  Bq   0.000000
    55  Bq   0.000000
    56  Bq   0.000000
    57  Bq   0.000000
    58  Bq   0.000000
 Sum of Mulliken charges =   0.00000
 Mulliken charges with hydrogens summed into heavy atoms:
               1
     1  C    0.000008
     2  C    0.000027
     3  C   -0.000031
     4  C    0.000000
     5  C    0.000030
     6  C   -0.000034
    19  Bq   0.000000
    20  Bq   0.000000
    21  Bq   0.000000
    22  Bq   0.000000
    23  Bq   0.000000
    24  Bq   0.000000
    25  Bq   0.000000
    26  Bq   0.000000
    27  Bq   0.000000
    28  Bq   0.000000
    29  Bq   0.000000
    30  Bq   0.000000
    31  Bq   0.000000
    32  Bq   0.000000
    33  Bq   0.000000
    34  Bq   0.000000
    35  Bq   0.000000
    36  Bq   0.000000
    37  Bq   0.000000
    38  Bq   0.000000
    39  Bq   0.000000
    40  Bq   0.000000
    41  Bq   0.000000
    42  Bq   0.000000
    43  Bq   0.000000
    44  Bq   0.000000
    45  Bq   0.000000
    46  Bq   0.000000
    47  Bq   0.000000
    48  Bq   0.000000
    49  Bq   0.000000
    50  Bq   0.000000
    51  Bq   0.000000
    52  Bq   0.000000
    53  Bq   0.000000
    54  Bq   0.000000
    55  Bq   0.000000
    56  Bq   0.000000
    57  Bq   0.000000
    58  Bq   0.000000
 Electronic spatial extent (au):  <R**2>=            540.3993
 Charge=              0.0000 electrons
 Dipole moment (field-independent basis, Debye):
    X=              0.0000    Y=              0.0000    Z=             -3.0741  Tot=              3.0741
 Quadrupole moment (field-independent basis, Debye-Ang):
   XX=            -40.8704   YY=            -40.8712   ZZ=            -39.9866
   XY=              0.0001   XZ=              0.0000   YZ=              0.0000
 Traceless Quadrupole moment (field-independent basis, Debye-Ang):
   XX=             -0.2943   YY=             -0.2951   ZZ=              0.5895
   XY=              0.0001   XZ=              0.0000   YZ=              0.0000
 Octapole moment (field-independent basis, Debye-Ang**2):
  XXX=             -0.0004  YYY=             -0.0001  ZZZ=              9.2203  XYY=              0.0004
  XXY=             -0.0001  XXZ=             -2.4541  XZZ=              0.0000  YZZ=              0.0000
  YYZ=             -2.4528  XYZ=              0.0003
 Hexadecapole moment (field-independent basis, Debye-Ang**3):
 XXXX=           -344.7844 YYYY=           -344.7489 ZZZZ=            -66.5138 XXXY=              0.0023
 XXXZ=             -0.0002 YYYX=              0.0046 YYYZ=             -0.0001 ZZZX=              0.0000
 ZZZY=              0.0002 XXYY=           -114.9242 XXZZ=            -74.1368 YYZZ=            -74.1304
 XXYZ=              0.0000 YYXZ=              0.0003 ZZXY=              0.0013
 N-N= 2.761853351110D+02 E-N=-1.099531497602D+03  KE= 2.378771367855D+02
 1\1\GINC-STALINUX1\SP\RB3LYP\6-311+G(d)\C6H12\STANGER\22-Oct-2020\0\\#
  B3LYP/6-311+G* SCF=MAXCYCLE=2000 NMR=GIAO INTEGRAL=(GRID=ULTRAFINE) C
 PHF=(GRID=FINE)\\-------------------------------- # Center 1\\0,1\C,0,
 -1.20739,0.69715,0.\C,0,-1.20739,-0.697,0.\C,0,-0.00009,-1.39408,0.\C,
 0,1.20742,-0.6971,0.\C,0,1.20742,0.69695,0.\C,0,0.00003,1.39408,0.\H,0
 ,0.00028,2.47965,0.\H,0,2.14758,1.2397,0.\H,0,2.14746,-1.24003,0.\H,0,
 -0.0002,-2.47965,0.00002\H,0,-2.14762,-1.23963,0.\H,0,-2.1475,1.23996,
 0.\H,0,-1.28287,0.74074,-0.9962\H,0,-1.28288,-0.74057,-0.9962\H,0,-0.0
 0009,-1.48123,-0.99619\H,0,1.2829,-0.74068,-0.9962\H,0,1.28291,0.74051
 ,-0.9962\H,0,0.00004,1.48123,-0.9962\Bq,0,0.,0.,0.\Bq,0,0.,0.,0.1\Bq,0
 ,0.,0.,0.2\Bq,0,0.,0.,0.3\Bq,0,0.,0.,0.4\Bq,0,0.,0.,0.5\Bq,0,0.,0.,0.6
 \Bq,0,0.,0.,0.7\Bq,0,0.,0.,0.8\Bq,0,0.,0.,0.9\Bq,0,0.,0.,1.\Bq,0,0.,0.
 ,1.1\Bq,0,0.,0.,1.2\Bq,0,0.,0.,1.3\Bq,0,0.,0.,1.4\Bq,0,0.,0.,1.5\Bq,0,
 0.,0.,1.6\Bq,0,0.,0.,1.7\Bq,0,0.,0.,1.8\Bq,0,0.,0.,1.9\Bq,0,0.,0.,2.\B
 q,0,0.,0.,2.1\Bq,0,0.,0.,2.2\Bq,0,0.,0.,2.3\Bq,0,0.,0.,2.4\Bq,0,0.,0.,
 2.5\Bq,0,0.,0.,2.6\Bq,0,0.,0.,2.7\Bq,0,0.,0.,2.8\Bq,0,0.,0.,2.9\Bq,0,0
 .,0.,3.\Bq,0,0.,0.,3.1\Bq,0,0.,0.,3.2\Bq,0,0.,0.,3.3\Bq,0,0.,0.,3.4\Bq
 ,0,0.,0.,3.5\Bq,0,0.,0.,3.6\Bq,0,0.,0.,3.7\Bq,0,0.,0.,3.8\Bq,0,0.,0.,3
 .9\\Version=EM64L-G09RevD.01\HF=-235.3835213\RMSD=4.378e-09\Dipole=0.0
 000009,-0.0000027,-1.2094312\Quadrupole=-0.218819,-0.2194291,0.4382481
 ,0.0000706,0.000001,-0.000031\PG=C01 [X(C6H12)]\\@


 DO YOU KNOW THAT THE LETTERS IN "EPISCOPAL", WHEN
 REARRANGED, SPELL "PEPSI COLA"?
 Job cpu time:       0 days  0 hours  7 minutes 48.8 seconds.
 File lengths (MBytes):  RWF=     14 Int=      0 D2E=      0 Chk=      3 Scr=      1
 Normal termination of Gaussian 09 at Thu Oct 22 12:23:28 2020.
