 Entering Gaussian System, Link 0=C:/Users/user/Documents/2.0Aroma/G09W/G09W/g09
 Input=input/benz-sigma-guessonly.in
 Output=output/benz-sigma-guessonly.log
 Initial command:
 C:/Users/user/Documents/2.0Aroma/G09W/G09W/\l1.exe .\gxx.inp output/benz-sigma-guessonly.log /scrdir=.\
 Entering Link 1 = C:/Users/user/Documents/2.0Aroma/G09W/G09W/\l1.exe PID=      1984.
  
 Copyright (c) 1988,1990,1992,1993,1995,1998,2003,2009, Gaussian, Inc.
                  All Rights Reserved.
  
 This is part of the Gaussian(R) 09 program.  It is based on
 the Gaussian(R) 03 system (copyright 2003, Gaussian, Inc.),
 the Gaussian(R) 98 system (copyright 1998, Gaussian, Inc.),
 the Gaussian(R) 94 system (copyright 1995, Gaussian, Inc.),
 the Gaussian 92(TM) system (copyright 1992, Gaussian, Inc.),
 the Gaussian 90(TM) system (copyright 1990, Gaussian, Inc.),
 the Gaussian 88(TM) system (copyright 1988, Gaussian, Inc.),
 the Gaussian 86(TM) system (copyright 1986, Carnegie Mellon
 University), and the Gaussian 82(TM) system (copyright 1983,
 Carnegie Mellon University). Gaussian is a federally registered
 trademark of Gaussian, Inc.
  
 This software contains proprietary and confidential information,
 including trade secrets, belonging to Gaussian, Inc.
  
 This software is provided under written license and may be
 used, copied, transmitted, or stored only in accord with that
 written license.
  
 The following legend is applicable only to US Government
 contracts under FAR:
  
                    RESTRICTED RIGHTS LEGEND
  
 Use, reproduction and disclosure by the US Government is
 subject to restrictions as set forth in subparagraphs (a)
 and (c) of the Commercial Computer Software - Restricted
 Rights clause in FAR 52.227-19.
  
 Gaussian, Inc.
 340 Quinnipiac St., Bldg. 40, Wallingford CT 06492
  
  
 ---------------------------------------------------------------
 Warning -- This program may not be used in any manner that
 competes with the business of Gaussian, Inc. or will provide
 assistance to any competitor of Gaussian, Inc.  The licensee
 of this program is prohibited from giving any competitor of
 Gaussian, Inc. access to this program.  By using this program,
 the user acknowledges that Gaussian, Inc. is engaged in the
 business of creating and licensing software in the field of
 computational chemistry and represents and warrants to the
 licensee that it is not a competitor of Gaussian, Inc. and that
 it will not use this program in any manner prohibited above.
 ---------------------------------------------------------------
  

 Cite this work as:
 Gaussian 09, Revision A.02,
 M. J. Frisch, G. W. Trucks, H. B. Schlegel, G. E. Scuseria, 
 M. A. Robb, J. R. Cheeseman, G. Scalmani, V. Barone, B. Mennucci, 
 G. A. Petersson, H. Nakatsuji, M. Caricato, X. Li, H. P. Hratchian, 
 A. F. Izmaylov, J. Bloino, G. Zheng, J. L. Sonnenberg, M. Hada, 
 M. Ehara, K. Toyota, R. Fukuda, J. Hasegawa, M. Ishida, T. Nakajima, 
 Y. Honda, O. Kitao, H. Nakai, T. Vreven, J. A. Montgomery, Jr., 
 J. E. Peralta, F. Ogliaro, M. Bearpark, J. J. Heyd, E. Brothers, 
 K. N. Kudin, V. N. Staroverov, R. Kobayashi, J. Normand, 
 K. Raghavachari, A. Rendell, J. C. Burant, S. S. Iyengar, J. Tomasi, 
 M. Cossi, N. Rega, J. M. Millam, M. Klene, J. E. Knox, J. B. Cross, 
 V. Bakken, C. Adamo, J. Jaramillo, R. Gomperts, R. E. Stratmann, 
 O. Yazyev, A. J. Austin, R. Cammi, C. Pomelli, J. W. Ochterski, 
 R. L. Martin, K. Morokuma, V. G. Zakrzewski, G. A. Voth, 
 P. Salvador, J. J. Dannenberg, S. Dapprich, A. D. Daniels, 
 O. Farkas, J. B. Foresman, J. V. Ortiz, J. Cioslowski, 
 and D. J. Fox, Gaussian, Inc., Wallingford CT, 2009.
 
 ******************************************
 Gaussian 09:  IA32W-G09RevA.02 11-Jun-2009
                21-Dec-2020 
 ******************************************
 ------------
 # guess=only
 ------------
 1/38=1/1;
 2/12=2,17=6,18=5,40=1/2;
 3/11=9,16=1,25=1,30=1,89=1/1,2;
 4//1;
 6/7=3,28=1/1;
 99/5=2/99;
 --------------------------------
 --------------- sigma only model
 --------------------------------
 Symbolic Z-matrix:
 Charge =  0 Multiplicity = 3
 6
 6                    1     1.39415 
 6                    2     1.3941   1     120.00154 
 6                    3     1.39422  2     120.00513  1     0.       0
 6                    4     1.39405  3     119.99333  2     0.       0
 6                    5     1.3942   4     120.00153  3     0.       0
 1                    6     1.08557  5     119.9886  4    -180.     0
 1                    5     1.08558  4     119.99785  3    -180.     0
 1                    4     1.08556  3     119.99775  2     180.     0
 1                    3     1.08557  2     119.99588  1     179.99885  0
 1                    2     1.08558  1     119.99077  3     180.     0
 1                    1     1.08556  2     120.00162  3    -180.     0
 0                    1     1.39421  2     59.99769  3     0.       0
 0                    1     1.71576  2     66.02591  3     39.63235  0
 1                    1     1.       13    95.      14    0.       0
 1                    2     1.       13    95.      14    0.       0
 1                    3     1.       13    95.      14    0.       0
 1                    4     1.       13    95.      14    0.       0
 1                    5     1.       13    95.      14    0.       0
 1                    6     1.       13    95.      14    0.       0
 0                    1     9.22061  2     111.91241  3     35.76675  0
 0                    1     7.51029  2     110.36348  3     34.61813  0
 0                    1     4.90901  2     49.62394  3    -126.65967  0
 
                          Input orientation:                          
 ---------------------------------------------------------------------
 Center     Atomic      Atomic             Coordinates (Angstroms)
 Number     Number       Type             X           Y           Z
 ---------------------------------------------------------------------
      1          6           0        0.000000    0.000000    0.000000
      2          6           0        0.000000    0.000000    1.394150
      3          6           0        1.207303    0.000000    2.091230
      4          6           0        2.414818    0.000000    1.394258
      5          6           0        2.414818    0.000000    0.000209
      6          6           0        1.207426    0.000000   -0.696921
      7          1           0        1.207671    0.000000   -1.782495
      8          1           0        3.354975    0.000000   -0.542544
      9          1           0        3.354856    0.000000    1.937184
     10          1           0        1.207196    0.000019    3.176805
     11          1           0       -0.940224    0.000000    1.936787
     12          1           0       -0.940108    0.000000   -0.542807
     13          0           0        1.207394    0.000000    0.697154
     14          0           0        1.207398   -0.999996    0.697153
     15          1           0       -0.075476   -0.996195   -0.043584
     16          1           0       -0.075481   -0.996195    1.437724
     17          1           0        1.207301   -0.996195    2.178386
     18          1           0        2.490299   -0.996195    1.437833
     19          1           0        2.490302   -0.996195   -0.043360
     20          1           0        1.207432   -0.996195   -0.784077
     21          0           0        6.941123   -4.999976   -3.441026
     22          0           0        5.794377   -3.999980   -2.613390
     23          0           0       -2.232843    2.999994    3.180063
 ---------------------------------------------------------------------
                    Distance matrix (angstroms):
                    1          2          3          4          5
     1  C    0.000000
     2  C    1.394150   0.000000
     3  C    2.414710   1.394095   0.000000
     4  C    2.788423   2.414818   1.394225   0.000000
     5  C    2.414818   2.788264   2.414634   1.394049   0.000000
     6  C    1.394122   2.414634   2.788151   2.414711   1.394198
     7  H    2.153081   3.398462   3.873725   3.398377   2.152961
     8  H    3.398560   3.873840   3.398420   2.152927   1.085576
     9  H    3.873983   3.398521   2.153071   1.085560   2.153031
    10  H    3.398442   2.152947   1.085575   2.153096   3.398398
    11  H    2.152943   1.085577   2.153074   3.398624   3.873841
    12  H    1.085561   2.153045   3.398459   3.873984   3.398587
    13  Bq   1.394211   1.394132   1.394076   1.394212   1.394132
    14  Bq   1.715758   1.715694   1.715647   1.715753   1.715687
    15  H    1.000000   1.750765   2.682416   3.043248   2.682514
    16  H    1.750757   1.000000   1.750717   2.682515   3.043098
    17  H    2.682414   1.750716   1.000000   1.750816   2.682341
    18  H    3.043248   2.682518   1.750831   1.000000   1.750675
    19  H    2.682515   3.043098   2.682343   1.750671   1.000000
    20  H    1.750735   2.682344   3.042991   2.682411   1.750797
    21  Bq   9.220608   9.826387   9.406504   8.298625   7.571612
    22  Bq   7.510290   8.101545   7.692499   6.594127   5.852535
    23  Bq   4.909007   4.144277   4.692561   5.812901   6.380610
                    6          7          8          9         10
     6  C    0.000000
     7  H    1.085574   0.000000
     8  H    2.153091   2.479596   0.000000
     9  H    3.398525   4.294930   2.479728   0.000000
    10  H    3.873726   4.959300   4.294940   2.479739   0.000000
    11  H    3.398356   4.294940   4.959417   4.295080   2.479729
    12  H    2.153057   2.479875   4.295083   4.959544   4.294930
    13  Bq   1.394076   2.479650   2.479708   2.479772   2.479650
    14  Bq   1.715644   2.673695   2.673747   2.673807   2.673706
    15  H    1.750740   2.379639   3.606848   4.084486   3.606742
    16  H    2.682343   3.606757   4.084347   3.606810   2.379518
    17  H    3.042991   4.084236   3.606711   2.379616   1.410419
    18  H    2.682414   3.606668   2.379487   1.410395   2.379668
    19  H    1.750805   2.379524   1.410407   2.379583   3.606697
    20  H    1.000000   1.410405   2.379639   3.606813   4.084241
    21  Bq   8.087346   7.786075   6.801575   8.172284  10.083331
    22  Bq   6.380660   6.142321   5.122395   6.531373   8.400511
    23  Bq   5.988858   6.742706   7.354011   6.462746   4.564398
                   11         12         13         14         15
    11  H    0.000000
    12  H    2.479594   0.000000
    13  Bq   2.479708   2.479772   0.000000
    14  Bq   2.673755   2.673813   0.999996   0.000000
    15  H    2.379509   1.410396   1.785176   1.481375   0.000000
    16  H    1.410407   2.379598   1.785110   1.481297   1.481308
    17  H    2.379630   3.606752   1.785063   1.481238   2.565671
    18  H    3.606917   4.084486   1.785176   1.481370   2.962734
    19  H    4.084348   3.606877   1.785110   1.481288   2.565777
    20  H    3.606651   2.379610   1.785063   1.481235   1.481277
    21  Bq  10.772014   9.773088   8.660251   8.124037   8.763877
    22  Bq   9.058632   8.101879   6.928200   6.403122   7.076850
    23  Bq   3.495220   4.952867   5.196155   5.830954   5.569170
                   16         17         18         19         20
    16  H    0.000000
    17  H    1.481253   0.000000
    18  H    2.565780   1.481385   0.000000
    19  H    2.962575   2.565589   1.481193   0.000000
    20  H    2.565593   2.962463   2.565664   1.481356   0.000000
    21  Bq   9.437437   8.971331   7.722912   6.883619   7.480966
    22  Bq   7.738830   7.281834   6.029268   5.152154   5.780067
    23  Bq   4.864101   5.367259   6.427516   6.976251   6.596925
                   21         22         23
    21  Bq   0.000000
    22  Bq   1.732051   0.000000
    23  Bq  13.856406  12.124356   0.000000
 Symmetry turned off:
 Cannot cope with ghost atoms or with translation vectors.
 Stoichiometry    C6H12(3)
 Framework group  C1[X(C6H12)]
 NUMDOF-- NAT=    18 NAtoms=    23
 Deg. of freedom     0
 Full point group                 C1      NOp   1
 Rotational constants (GHZ):      5.0157721      5.0150246      2.6544137
 Standard basis: STO-3G (5D, 7F)
 Warning:  center  13 has no basis functions!
 Warning:  center  14 has no basis functions!
 Warning:  center  21 has no basis functions!
 Warning:  center  22 has no basis functions!
 Warning:  center  23 has no basis functions!
 Integral buffers will be    262144 words long.
 Raffenetti 2 integral format.
 Two-electron integral symmetry is turned off.
    42 basis functions,   126 primitive gaussians,    42 cartesian basis functions
    25 alpha electrons       23 beta electrons
       nuclear repulsion energy       276.1853400839 Hartrees.
 NAtoms=   23 NActive=   23 NUniq=   23 SFac= 7.50D-01 NAtFMM=   80 NAOKFM=F Big=F
 One-electron integrals computed using PRISM.
 NBasis=    42 RedAO= T  NBF=    42
 NBsUse=    42 1.00D-06 NBFU=    42
 Harris functional with IExCor=  205 diagonalized for initial guess.
 ExpMin= 1.69D-01 ExpMax= 7.16D+01 ExpMxC= 7.16D+01 IAcc=1 IRadAn=         1 AccDes= 0.00D+00
 HarFok:  IExCor=  205 AccDes= 0.00D+00 IRadAn=         1 IDoV= 1
 ScaDFX=  1.000000  1.000000  1.000000  1.000000
 FoFCou: FMM=F IPFlag=           0 FMFlag=      100000 FMFlg1=           0
         NFxFlg=           0 DoJE=T BraDBF=F KetDBF=T FulRan=T
         Omega=  0.000000  0.000000  1.000000  0.000000  0.000000 ICntrl=     500 IOpCl=  0
         NMat0=    1 NMatS0=    1 NMatT0=    0 NMatD0=    1 NMtDS0=    0 NMtDT0=    0
         I1Cent=           4 NGrid=           0.
 Symmetry not used in FoFCou.
 Initial guess <Sx>= 0.0000 <Sy>= 0.0000 <Sz>= 1.0000 <S**2>= 2.0000 S= 1.0000

 **********************************************************************

            Population analysis using the SCF density.

 **********************************************************************

 Alpha  occ. eigenvalues --   -9.86111  -9.86043  -9.86042  -9.85913  -9.85912
 Alpha  occ. eigenvalues --   -9.85824  -1.04473  -0.94536  -0.94532  -0.78945
 Alpha  occ. eigenvalues --   -0.78943  -0.67986  -0.62424  -0.62019  -0.61945
 Alpha  occ. eigenvalues --   -0.55943  -0.55936  -0.54941  -0.54939  -0.49042
 Alpha  occ. eigenvalues --   -0.49040  -0.39123  -0.39121  -0.28415   0.01910
 Alpha virt. eigenvalues --    0.11630   0.11632   0.11856   0.11862   0.14610
 Alpha virt. eigenvalues --    0.14612   0.16249   0.17908   0.31384   0.31385
 Alpha virt. eigenvalues --    0.36141   0.36145   0.40510   0.46063   0.52112
 Alpha virt. eigenvalues --    0.52114   0.69596
  Beta  occ. eigenvalues --   -9.86111  -9.86043  -9.86042  -9.85913  -9.85912
  Beta  occ. eigenvalues --   -9.85824  -1.04473  -0.94536  -0.94532  -0.78945
  Beta  occ. eigenvalues --   -0.78943  -0.67986  -0.62424  -0.62019  -0.61945
  Beta  occ. eigenvalues --   -0.55943  -0.55936  -0.54941  -0.54939  -0.49042
  Beta  occ. eigenvalues --   -0.49040  -0.39123  -0.39121
  Beta virt. eigenvalues --   -0.28415   0.01910   0.11630   0.11632   0.11856
  Beta virt. eigenvalues --    0.11862   0.14610   0.14612   0.16249   0.17908
  Beta virt. eigenvalues --    0.31384   0.31385   0.36141   0.36145   0.40510
  Beta virt. eigenvalues --    0.46063   0.52112   0.52114   0.69596
     Alpha Molecular Orbital Coefficients:
                           1         2         3         4         5
                           O         O         O         O         O
     Eigenvalues --    -9.86111  -9.86043  -9.86042  -9.85913  -9.85912
   1 1   C  1S         -0.40291  -0.46946  -0.32308   0.46870  -0.32473
   2        2S         -0.03687  -0.03607  -0.02478   0.02403  -0.01659
   3        2PX        -0.00407  -0.00027  -0.00468   0.00101   0.00381
   4        2PY         0.00349   0.00403   0.00277  -0.00377   0.00261
   5        2PZ        -0.00237  -0.00501   0.00437  -0.00429  -0.00480
   6 2   C  1S          0.40330   0.51411  -0.24658   0.51615   0.24158
   7        2S          0.03689   0.03948  -0.01890   0.02644   0.01233
   8        2PX         0.00407   0.00099  -0.00458   0.00035  -0.00392
   9        2PY        -0.00349  -0.00441   0.00212  -0.00415  -0.00194
  10        2PZ        -0.00237  -0.00427  -0.00509   0.00343  -0.00545
  11 3   C  1S         -0.40082  -0.04386   0.56682   0.04816   0.56961
  12        2S         -0.03676  -0.00338   0.04357   0.00247   0.02923
  13        2PX         0.00000   0.00740   0.00058   0.00736  -0.00062
  14        2PY         0.00347   0.00038  -0.00487  -0.00039  -0.00458
  15        2PZ         0.00472   0.00026  -0.00332   0.00013   0.00153
  16 4   C  1S          0.40287  -0.46938  -0.32327  -0.46858   0.32484
  17        2S          0.03687  -0.03606  -0.02479  -0.02402   0.01661
  18        2PX        -0.00407   0.00027   0.00468   0.00101   0.00381
  19        2PY        -0.00349   0.00403   0.00277   0.00377  -0.00261
  20        2PZ        -0.00237   0.00501  -0.00437  -0.00429  -0.00481
  21 5   C  1S         -0.40328   0.51403  -0.24668  -0.51608  -0.24179
  22        2S         -0.03689   0.03948  -0.01891  -0.02643  -0.01235
  23        2PX         0.00407  -0.00099   0.00458   0.00035  -0.00392
  24        2PY         0.00349  -0.00441   0.00212   0.00415   0.00194
  25        2PZ        -0.00237   0.00427   0.00509   0.00342  -0.00546
  26 6   C  1S          0.40086  -0.04407   0.56682  -0.04830  -0.56957
  27        2S          0.03677  -0.00339   0.04357  -0.00249  -0.02922
  28        2PX         0.00000  -0.00740  -0.00058   0.00736  -0.00062
  29        2PY        -0.00348   0.00038  -0.00487   0.00039   0.00458
  30        2PZ         0.00472  -0.00026   0.00332   0.00013   0.00153
  31 7   H  1S         -0.00496   0.00052  -0.00674   0.00054   0.00636
  32 8   H  1S          0.00499  -0.00611   0.00293   0.00576   0.00270
  33 9   H  1S         -0.00498   0.00558   0.00384   0.00523  -0.00362
  34 10  H  1S          0.00496   0.00052  -0.00674  -0.00054  -0.00636
  35 11  H  1S         -0.00499  -0.00611   0.00293  -0.00576  -0.00269
  36 12  H  1S          0.00498   0.00558   0.00384  -0.00523   0.00362
  37 13  H  1S          0.00669   0.00750   0.00516  -0.00662   0.00458
  38 14  H  1S         -0.00670  -0.00821   0.00394  -0.00728  -0.00341
  39 15  H  1S          0.00666   0.00070  -0.00906  -0.00068  -0.00804
  40 16  H  1S         -0.00669   0.00750   0.00516   0.00661  -0.00458
  41 17  H  1S          0.00670  -0.00821   0.00394   0.00728   0.00341
  42 18  H  1S         -0.00666   0.00070  -0.00906   0.00068   0.00804
                           6         7         8         9        10
                           O         O         O         O         O
     Eigenvalues --    -9.85824  -1.04473  -0.94536  -0.94532  -0.78945
   1 1   C  1S          0.40337  -0.10110   0.12251  -0.07373   0.10158
   2        2S          0.01572   0.23704  -0.30824   0.18550  -0.28955
   3        2PX        -0.00253   0.04990   0.00163   0.06434   0.10138
   4        2PY        -0.00306  -0.06378   0.08939  -0.05380   0.08634
   5        2PZ        -0.00144   0.02881  -0.06568  -0.07364  -0.08079
   6 2   C  1S          0.40301  -0.10111   0.12509   0.06926   0.00519
   7        2S          0.01569   0.23705  -0.31473  -0.17427  -0.01479
   8        2PX        -0.00253   0.04990  -0.00068  -0.06436   0.11439
   9        2PY        -0.00306  -0.06378   0.09127   0.05054   0.00441
  10        2PZ         0.00144  -0.02881   0.06298  -0.07598   0.19327
  11 3   C  1S          0.40535  -0.10110   0.00260   0.14296  -0.10675
  12        2S          0.01587   0.23701  -0.00653  -0.35970   0.30428
  13        2PX         0.00000  -0.00002   0.11193  -0.00198  -0.10391
  14        2PY        -0.00308  -0.06378   0.00190   0.10432  -0.09073
  15        2PZ         0.00290  -0.05759   0.00067   0.03662   0.04980
  16 4   C  1S          0.40340  -0.10110  -0.12253   0.07370   0.10156
  17        2S          0.01572   0.23704   0.30828  -0.18544  -0.28950
  18        2PX         0.00253  -0.04989   0.00166   0.06431  -0.10136
  19        2PY        -0.00306  -0.06378  -0.08940   0.05378   0.08632
  20        2PZ         0.00144  -0.02884  -0.06573  -0.07361   0.08077
  21 5   C  1S          0.40302  -0.10111  -0.12511  -0.06923   0.00516
  22        2S          0.01569   0.23705   0.31477   0.17419  -0.01471
  23        2PX         0.00253  -0.04989  -0.00066  -0.06433  -0.11437
  24        2PY        -0.00306  -0.06379  -0.09129  -0.05052   0.00439
  25        2PZ        -0.00144   0.02883   0.06303  -0.07596  -0.19328
  26 6   C  1S          0.40531  -0.10110  -0.00256  -0.14296  -0.10676
  27        2S          0.01587   0.23701   0.00645   0.35971   0.30432
  28        2PX         0.00000  -0.00001   0.11193  -0.00204   0.10394
  29        2PY        -0.00308  -0.06378  -0.00187  -0.10432  -0.09074
  30        2PZ        -0.00290   0.05759   0.00066   0.03662  -0.04981
  31 7   H  1S         -0.00461   0.02054   0.00082   0.04546   0.07544
  32 8   H  1S         -0.00459   0.02054   0.03978   0.02202  -0.00365
  33 9   H  1S         -0.00459   0.02054   0.03896  -0.02344  -0.07176
  34 10  H  1S         -0.00461   0.02054  -0.00083  -0.04546   0.07543
  35 11  H  1S         -0.00459   0.02054  -0.03977  -0.02202  -0.00368
  36 12  H  1S         -0.00459   0.02054  -0.03895   0.02345  -0.07178
  37 13  H  1S         -0.00516   0.04841  -0.08248   0.04964  -0.10281
  38 14  H  1S         -0.00515   0.04841  -0.08421  -0.04663  -0.00526
  39 15  H  1S         -0.00519   0.04840  -0.00175  -0.09625   0.10804
  40 16  H  1S         -0.00516   0.04841   0.08249  -0.04962  -0.10279
  41 17  H  1S         -0.00515   0.04841   0.08422   0.04661  -0.00522
  42 18  H  1S         -0.00519   0.04840   0.00173   0.09625   0.10805
                          11        12        13        14        15
                           O         O         O         O         O
     Eigenvalues --    -0.78943  -0.67986  -0.62424  -0.62019  -0.61945
   1 1   C  1S          0.06461  -0.01123  -0.07849  -0.00018  -0.03991
   2        2S         -0.18418   0.02768   0.26976   0.00063   0.14411
   3        2PX        -0.06872   0.19439  -0.13434  -0.16640  -0.12268
   4        2PY         0.05492   0.13928  -0.08613  -0.00015   0.19070
   5        2PZ         0.17930   0.11224  -0.07842   0.28743  -0.07086
   6 2   C  1S         -0.12027  -0.01124   0.07849   0.00018  -0.03991
   7        2S          0.34284   0.02769  -0.26977  -0.00060   0.14410
   8        2PX        -0.04379   0.19440   0.13504  -0.16580  -0.12269
   9        2PY        -0.10223   0.13929   0.08612   0.00022   0.19071
  10        2PZ         0.03641  -0.11223  -0.07706  -0.28779   0.07085
  11 3   C  1S          0.05567  -0.01123  -0.07849  -0.00018  -0.03991
  12        2S         -0.15869   0.02767   0.26977   0.00064   0.14411
  13        2PX        -0.19931   0.00001  -0.00074   0.33213  -0.00005
  14        2PY         0.04732   0.13927  -0.08611  -0.00020   0.19070
  15        2PZ        -0.02599  -0.22442   0.15543   0.00039   0.14167
  16 4   C  1S          0.06464  -0.01123   0.07849   0.00018  -0.03992
  17        2S         -0.18426   0.02768  -0.26976  -0.00059   0.14412
  18        2PX         0.06871  -0.19437  -0.13433  -0.16642   0.12271
  19        2PY         0.05494   0.13928   0.08613   0.00019   0.19069
  20        2PZ        -0.17932  -0.11228  -0.07843   0.28741   0.07083
  21 5   C  1S         -0.12027  -0.01124  -0.07849  -0.00018  -0.03991
  22        2S          0.34285   0.02769   0.26977   0.00064   0.14409
  23        2PX         0.04378  -0.19438   0.13503  -0.16581   0.12270
  24        2PY        -0.10223   0.13928  -0.08612  -0.00018   0.19071
  25        2PZ        -0.03644   0.11227  -0.07709  -0.28778  -0.07082
  26 6   C  1S          0.05565  -0.01123   0.07849   0.00018  -0.03991
  27        2S         -0.15862   0.02767  -0.26976  -0.00060   0.14411
  28        2PX         0.19930  -0.00005  -0.00076   0.33213   0.00001
  29        2PY         0.04730   0.13927   0.08611   0.00024   0.19069
  30        2PZ         0.02597   0.22442   0.15543   0.00041  -0.14167
  31 7   H  1S         -0.03931  -0.06411  -0.14380  -0.00032   0.11391
  32 8   H  1S          0.08499  -0.06412   0.14383   0.00031   0.11390
  33 9   H  1S         -0.04568  -0.06412  -0.14386  -0.00033   0.11392
  34 10  H  1S         -0.03934  -0.06411   0.14381   0.00034   0.11391
  35 11  H  1S          0.08499  -0.06412  -0.14383  -0.00028   0.11391
  36 12  H  1S         -0.04566  -0.06412   0.14386   0.00035   0.11391
  37 13  H  1S         -0.06540  -0.09684   0.11893   0.00025  -0.09306
  38 14  H  1S          0.12173  -0.09684  -0.11892  -0.00028  -0.09307
  39 15  H  1S         -0.05635  -0.09683   0.11891   0.00029  -0.09306
  40 16  H  1S         -0.06542  -0.09684  -0.11893  -0.00026  -0.09306
  41 17  H  1S          0.12173  -0.09684   0.11892   0.00027  -0.09308
  42 18  H  1S         -0.05632  -0.09683  -0.11891  -0.00030  -0.09305
                          16        17        18        19        20
                           O         O         O         O         O
     Eigenvalues --    -0.55943  -0.55936  -0.54941  -0.54939  -0.49042
   1 1   C  1S         -0.03509  -0.01574   0.03268  -0.02394  -0.00943
   2        2S          0.10903   0.04893  -0.11777   0.08628   0.05697
   3        2PX         0.26801   0.18605   0.15080  -0.08369  -0.27693
   4        2PY         0.16816   0.07552  -0.25708   0.18835  -0.08072
   5        2PZ         0.21151  -0.01938   0.05759  -0.08858  -0.12248
   6 2   C  1S         -0.03116   0.02255   0.03707   0.01631   0.00547
   7        2S          0.09682  -0.07008  -0.13360  -0.05878  -0.03307
   8        2PX         0.22466  -0.23657   0.16534   0.04941   0.29481
   9        2PY         0.14945  -0.10812  -0.29160  -0.12841   0.04678
  10        2PZ        -0.21097   0.02399  -0.07533  -0.07421   0.16138
  11 3   C  1S          0.00391   0.03827   0.00439   0.04025   0.00397
  12        2S         -0.01214  -0.11894  -0.01582  -0.14506  -0.02397
  13        2PX        -0.11956   0.01228   0.04308  -0.00471  -0.31957
  14        2PY        -0.01870  -0.18361  -0.03456  -0.31670   0.03388
  15        2PZ         0.03778   0.36823  -0.02146  -0.19667  -0.12635
  16 4   C  1S          0.03508   0.01575  -0.03269   0.02393  -0.00942
  17        2S         -0.10901  -0.04896   0.11779  -0.08625   0.05696
  18        2PX         0.26800   0.18591   0.15082  -0.08367   0.27696
  19        2PY        -0.16819  -0.07545   0.25711  -0.18830  -0.08073
  20        2PZ         0.21165  -0.01939   0.05759  -0.08855   0.12246
  21 5   C  1S          0.03116  -0.02256  -0.03708  -0.01630   0.00545
  22        2S         -0.09680   0.07012   0.13362   0.05875  -0.03299
  23        2PX         0.22467  -0.23642   0.16536   0.04939  -0.29495
  24        2PY        -0.14949   0.10806   0.29162   0.12836   0.04685
  25        2PZ        -0.21112   0.02400  -0.07533  -0.07419  -0.16132
  26 6   C  1S         -0.00390  -0.03828  -0.00438  -0.04025   0.00395
  27        2S          0.01210   0.11895   0.01578   0.14507  -0.02389
  28        2PX        -0.11958   0.01214   0.04308  -0.00473   0.31959
  29        2PY         0.01877   0.18361   0.03450   0.31671   0.03396
  30        2PZ         0.03792   0.36822  -0.02143  -0.19667   0.12652
  31 7   H  1S         -0.01519  -0.14695   0.01911   0.17536  -0.09241
  32 8   H  1S          0.11980  -0.08647   0.16135   0.07114  -0.12770
  33 9   H  1S          0.13488   0.06035   0.14222  -0.10416   0.22004
  34 10  H  1S          0.01511   0.14695  -0.01914  -0.17536  -0.09235
  35 11  H  1S         -0.11975   0.08654  -0.16134  -0.07116  -0.12765
  36 12  H  1S         -0.13485  -0.06043  -0.14220   0.10418   0.22004
  37 13  H  1S         -0.11577  -0.05198   0.14679  -0.10754   0.08907
  38 14  H  1S         -0.10289   0.07441   0.16649   0.07330  -0.05164
  39 15  H  1S          0.01288   0.12638   0.01973   0.18081  -0.03740
  40 16  H  1S          0.11579   0.05192  -0.14681   0.10751   0.08908
  41 17  H  1S          0.10293  -0.07436  -0.16650  -0.07328  -0.05168
  42 18  H  1S         -0.01295  -0.12638  -0.01970  -0.18081  -0.03744
                          21        22        23        24        25
                           O         O         O         O         O
     Eigenvalues --    -0.49040  -0.39123  -0.39121  -0.28415   0.01910
   1 1   C  1S          0.00086   0.01022   0.01120   0.00376   0.01368
   2        2S         -0.00522  -0.02678  -0.02935  -0.03338  -0.09565
   3        2PX        -0.15097   0.12107   0.06078  -0.10346  -0.09165
   4        2PY         0.00749  -0.28300  -0.31018   0.31898   0.32063
   5        2PZ         0.31737  -0.01277   0.11049  -0.05972  -0.05291
   6 2   C  1S          0.00772   0.00459  -0.01445  -0.00376   0.01368
   7        2S         -0.04669  -0.01203   0.03785   0.03338  -0.09565
   8        2PX         0.11215   0.08447  -0.10588   0.10345  -0.09164
   9        2PY         0.06620  -0.12717   0.40016  -0.31898   0.32063
  10        2PZ        -0.29946   0.05786   0.09503  -0.05973   0.05294
  11 3   C  1S         -0.00859  -0.01480   0.00325   0.00377   0.01369
  12        2S          0.05193   0.03879  -0.00851  -0.03339  -0.09571
  13        2PX        -0.14712  -0.02075  -0.09466   0.00001   0.00001
  14        2PY        -0.07369   0.41012  -0.09002   0.31896   0.32059
  15        2PZ         0.27472   0.14268  -0.03134   0.11945   0.10585
  16 4   C  1S          0.00088   0.01021   0.01120  -0.00376   0.01368
  17        2S         -0.00532  -0.02676  -0.02936   0.03338  -0.09565
  18        2PX         0.15114  -0.12107  -0.06078  -0.10346   0.09164
  19        2PY         0.00741  -0.28295  -0.31024  -0.31898   0.32063
  20        2PZ        -0.31727   0.01276  -0.11050  -0.05972   0.05292
  21 5   C  1S          0.00773   0.00459  -0.01445   0.00376   0.01368
  22        2S         -0.04674  -0.01202   0.03785  -0.03338  -0.09566
  23        2PX        -0.11206  -0.08446   0.10587   0.10345   0.09164
  24        2PY         0.06616  -0.12709   0.40018   0.31899   0.32064
  25        2PZ         0.29937  -0.05786  -0.09504  -0.05973  -0.05295
  26 6   C  1S         -0.00860  -0.01481   0.00325  -0.00376   0.01369
  27        2S          0.05197   0.03879  -0.00850   0.03339  -0.09571
  28        2PX         0.14708   0.02077   0.09466   0.00000   0.00000
  29        2PY        -0.07365   0.41013  -0.08994  -0.31896   0.32060
  30        2PZ        -0.27463  -0.14268   0.03134   0.11945  -0.10585
  31 7   H  1S          0.20075   0.17453  -0.03829  -0.16680  -0.25502
  32 8   H  1S         -0.18036  -0.05408   0.17028   0.16681  -0.25504
  33 9   H  1S         -0.02034  -0.12041  -0.13199  -0.16681  -0.25502
  34 10  H  1S          0.20078   0.17452  -0.03832   0.16680  -0.25502
  35 11  H  1S         -0.18040  -0.05412   0.17027  -0.16681  -0.25504
  36 12  H  1S         -0.02040  -0.12044  -0.13197   0.16681  -0.25502
  37 13  H  1S         -0.00825   0.20295   0.22242  -0.25373   0.42432
  38 14  H  1S         -0.07304   0.09121  -0.28695   0.25373   0.42433
  39 15  H  1S          0.08129  -0.29409   0.06455  -0.25372   0.42431
  40 16  H  1S         -0.00820   0.20291   0.22246   0.25373   0.42432
  41 17  H  1S         -0.07302   0.09115  -0.28697  -0.25373   0.42434
  42 18  H  1S          0.08126  -0.29410   0.06450   0.25372   0.42431
                          26        27        28        29        30
                           V         V         V         V         V
     Eigenvalues --     0.11630   0.11632   0.11856   0.11862   0.14610
   1 1   C  1S          0.00075  -0.00228   0.06363   0.10902   0.00102
   2        2S          0.00195   0.00704  -0.37916  -0.64982  -0.00213
   3        2PX        -0.12683  -0.15671  -0.29090  -0.10150   0.42031
   4        2PY        -0.33379   0.34439  -0.19215  -0.32096  -0.02179
   5        2PZ         0.25681   0.23963   0.23418  -0.28942  -0.26509
   6 2   C  1S          0.00182   0.00158   0.06264  -0.10956   0.00254
   7        2S         -0.00194  -0.00713  -0.37329   0.65306  -0.00682
   8        2PX        -0.02804   0.19905  -0.28986   0.10426   0.41527
   9        2PY        -0.46350  -0.12304  -0.18922   0.32274  -0.04783
  10        2PZ        -0.09672   0.33772  -0.23680  -0.28736  -0.25623
  11 3   C  1S          0.00165   0.00181  -0.12620   0.00060   0.00140
  12        2S         -0.00734  -0.00193   0.75214  -0.00350  -0.00403
  13        2PX        -0.39035   0.10444  -0.00096   0.40154   0.42444
  14        2PY        -0.13145  -0.46129   0.37411  -0.00589  -0.02571
  15        2PZ        -0.00430  -0.02392  -0.26903   0.00045  -0.25637
  16 4   C  1S         -0.00231   0.00077   0.06360   0.10904  -0.00130
  17        2S          0.00730   0.00195  -0.37911  -0.64985   0.00388
  18        2PX        -0.13221  -0.15706   0.29075   0.09833   0.41971
  19        2PY         0.33842  -0.33988  -0.18472  -0.32525   0.02275
  20        2PZ         0.25936   0.23365  -0.23103   0.29320  -0.26484
  21 5   C  1S         -0.00237   0.00053   0.06261  -0.10958  -0.00253
  22        2S          0.00523  -0.00545  -0.37326   0.65309   0.00677
  23        2PX        -0.03245   0.20219   0.28969  -0.10112   0.41473
  24        2PY         0.46515   0.11673  -0.18183   0.32694   0.04781
  25        2PZ        -0.10196   0.33397   0.23358   0.29118  -0.25716
  26 6   C  1S          0.00046  -0.00241  -0.12620   0.00056  -0.00112
  27        2S         -0.00520   0.00552   0.75216  -0.00345   0.00230
  28        2PX        -0.38851   0.11113  -0.00472  -0.40151   0.42499
  29        2PY         0.12517   0.46309   0.37409   0.00259   0.02478
  30        2PZ        -0.00888  -0.02261   0.26901  -0.00211  -0.25674
  31 7   H  1S         -0.05370  -0.20148  -0.26244  -0.00136  -0.31351
  32 8   H  1S         -0.20237  -0.04958   0.12808  -0.22915  -0.59704
  33 9   H  1S         -0.14763   0.14737   0.13008   0.22825  -0.28317
  34 10  H  1S          0.05806   0.20023  -0.26242   0.00379   0.31434
  35 11  H  1S          0.20123   0.05396   0.13258  -0.22662   0.59708
  36 12  H  1S          0.14442  -0.15049   0.13458   0.22564   0.28234
  37 13  H  1S         -0.43638   0.44787  -0.15044  -0.24696  -0.02635
  38 14  H  1S         -0.60476  -0.15881  -0.14816   0.24839  -0.05733
  39 15  H  1S         -0.16969  -0.60185   0.28918  -0.00676  -0.03081
  40 16  H  1S          0.43997  -0.44437  -0.14078  -0.25254   0.02717
  41 17  H  1S          0.60604   0.15391  -0.13854   0.25385   0.05731
  42 18  H  1S          0.16482   0.60324   0.28915   0.00427   0.03002
                          31        32        33        34        35
                           V         V         V         V         V
     Eigenvalues --     0.14612   0.16249   0.17908   0.31384   0.31385
   1 1   C  1S          0.00235   0.06601  -0.10209   0.00099   0.00404
   2        2S         -0.00672  -0.42270   0.60859  -0.00162  -0.00541
   3        2PX         0.25392   0.23571   0.05996   0.20631   0.61393
   4        2PY        -0.04242   0.15083   0.29502  -0.01541  -0.06734
   5        2PZ         0.41928   0.13599   0.03510  -0.02163   0.38729
   6 2   C  1S         -0.00016   0.06605   0.10208   0.00308  -0.00278
   7        2S          0.00126  -0.42296  -0.60855  -0.00438   0.00346
   8        2PX         0.26246   0.23573  -0.05991   0.51409  -0.39386
   9        2PY        -0.00080   0.15069  -0.29509  -0.05052   0.04718
  10        2PZ         0.42473  -0.13601   0.03511  -0.19845   0.33317
  11 3   C  1S         -0.00197   0.06606  -0.10211  -0.00399  -0.00116
  12        2S          0.00469  -0.42303   0.60869   0.00548   0.00128
  13        2PX         0.26286  -0.00012   0.00008   0.03625  -0.11968
  14        2PY         0.03993   0.15062   0.29493   0.06611   0.02037
  15        2PZ         0.41535  -0.27211  -0.06885   0.71199   0.21721
  16 4   C  1S         -0.00220   0.06601   0.10209   0.00088   0.00406
  17        2S          0.00576  -0.42272  -0.60858  -0.00094  -0.00556
  18        2PX         0.25362  -0.23571   0.06005  -0.20598  -0.61412
  19        2PY         0.04191   0.15082  -0.29503  -0.01565  -0.06729
  20        2PZ         0.42020  -0.13604   0.03499   0.02189  -0.38714
  21 5   C  1S         -0.00016   0.06605  -0.10208   0.00301  -0.00286
  22        2S          0.00073  -0.42295   0.60855  -0.00390   0.00397
  23        2PX         0.26206  -0.23573  -0.05996  -0.51392   0.39420
  24        2PY         0.00190   0.15069   0.29508  -0.05069   0.04700
  25        2PZ         0.42492   0.13605   0.03500   0.19816  -0.33319
  26 6   C  1S          0.00214   0.06607   0.10210  -0.00396  -0.00126
  27        2S         -0.00574  -0.42305  -0.60866   0.00529   0.00194
  28        2PX         0.26195   0.00006  -0.00005  -0.03647   0.11961
  29        2PY        -0.04049   0.15061  -0.29492   0.06617   0.02014
  30        2PZ         0.41513   0.27210  -0.06885  -0.71187  -0.21761
  31 7   H  1S          0.50799   0.46009   0.35455  -0.64670  -0.19782
  32 8   H  1S         -0.01823   0.46008  -0.35391   0.49433  -0.46148
  33 9   H  1S         -0.52587   0.45989   0.35385   0.15200   0.65905
  34 10  H  1S         -0.50748   0.46008  -0.35457  -0.64687  -0.19726
  35 11  H  1S          0.01728   0.46007   0.35390   0.49473  -0.46105
  36 12  H  1S          0.52634   0.45986  -0.35387   0.15257   0.65892
  37 13  H  1S         -0.05067   0.23885   0.15833  -0.01671  -0.07336
  38 14  H  1S         -0.00132   0.23874  -0.15842  -0.05499   0.05144
  39 15  H  1S          0.04814   0.23867   0.15818   0.07199   0.02227
  40 16  H  1S          0.05023   0.23884  -0.15834  -0.01711  -0.07327
  41 17  H  1S          0.00225   0.23874   0.15841  -0.05527   0.05114
  42 18  H  1S         -0.04862   0.23867  -0.15818   0.07210   0.02188
                          36        37        38        39        40
                           V         V         V         V         V
     Eigenvalues --     0.36141   0.36145   0.40510   0.46063   0.52112
   1 1   C  1S         -0.06283  -0.10341   0.00000   0.00940   0.08157
   2        2S          0.44328   0.72956  -0.00003  -0.07525  -0.60451
   3        2PX         0.18376  -0.30282  -0.37823  -0.53894  -0.09310
   4        2PY        -0.13599  -0.22383   0.00010  -0.15319   0.34071
   5        2PZ        -0.51361   0.20168   0.65579  -0.31075   0.13195
   6 2   C  1S         -0.12098   0.00274   0.00001  -0.00940   0.04571
   7        2S          0.85347  -0.01930  -0.00006   0.07526  -0.33873
   8        2PX        -0.15629   0.31800   0.37833   0.53891  -0.10432
   9        2PY        -0.26183   0.00595   0.00000   0.15319   0.19092
  10        2PZ         0.10657   0.54142   0.65579  -0.31070  -0.16422
  11 3   C  1S         -0.05813   0.10612  -0.00001   0.00938  -0.12725
  12        2S          0.41007  -0.74868   0.00001  -0.07514   0.94299
  13        2PX         0.55073   0.30182   0.75708   0.00037   0.03312
  14        2PY        -0.12592   0.22969  -0.00008  -0.15320  -0.53153
  15        2PZ         0.09094  -0.16526  -0.00026   0.62203  -0.02280
  16 4   C  1S          0.06285   0.10340   0.00001  -0.00940   0.08154
  17        2S         -0.44336  -0.72951  -0.00005   0.07526  -0.60427
  18        2PX         0.18322  -0.30256   0.37889  -0.53847   0.09300
  19        2PY         0.13611   0.22376   0.00007   0.15318   0.34061
  20        2PZ        -0.51386   0.20194  -0.65540  -0.31158  -0.13182
  21 5   C  1S          0.12097  -0.00272   0.00000   0.00940   0.04567
  22        2S         -0.85346   0.01920  -0.00005  -0.07527  -0.33844
  23        2PX        -0.15636   0.31742  -0.37899   0.53844   0.10425
  24        2PY         0.26183  -0.00581   0.00003  -0.15318   0.19081
  25        2PZ         0.10649   0.54176  -0.65540  -0.31153   0.16415
  26 6   C  1S          0.05811  -0.10613   0.00000  -0.00938  -0.12726
  27        2S         -0.40999   0.74872   0.00000   0.07514   0.94304
  28        2PX         0.55078   0.30174  -0.75708  -0.00058  -0.03337
  29        2PY         0.12580  -0.22977  -0.00011   0.15320  -0.53155
  30        2PZ         0.09033  -0.16559  -0.00051   0.62204   0.02281
  31 7   H  1S          0.19034  -0.34831  -0.00027   0.39836  -0.18098
  32 8   H  1S          0.39694  -0.00876   0.00042  -0.39835   0.06493
  33 9   H  1S          0.20646   0.33910  -0.00025   0.39840   0.11599
  34 10  H  1S         -0.19090   0.34800   0.00026  -0.39836  -0.18098
  35 11  H  1S         -0.39692   0.00938  -0.00011   0.39835   0.06495
  36 12  H  1S         -0.20592  -0.33942   0.00027  -0.39840   0.11601
  37 13  H  1S         -0.22614  -0.37222   0.00014  -0.19663   0.53559
  38 14  H  1S         -0.43542   0.00990   0.00000   0.19663   0.30012
  39 15  H  1S         -0.20937   0.38196  -0.00011  -0.19665  -0.83555
  40 16  H  1S          0.22631   0.37211   0.00010   0.19662   0.53544
  41 17  H  1S          0.43542  -0.00968   0.00004  -0.19662   0.29994
  42 18  H  1S          0.20918  -0.38207  -0.00015   0.19665  -0.83558
                          41        42
                           V         V
     Eigenvalues --     0.52114   0.69596
   1 1   C  1S          0.09985  -0.09729
   2        2S         -0.73993   0.76834
   3        2PX         0.05008   0.20511
   4        2PY         0.41703  -0.39506
   5        2PZ        -0.12273   0.11838
   6 2   C  1S         -0.12056   0.09729
   7        2S          0.89341  -0.76838
   8        2PX        -0.01802  -0.20509
   9        2PY        -0.50354   0.39507
  10        2PZ        -0.07453   0.11835
  11 3   C  1S          0.02073  -0.09728
  12        2S         -0.15361   0.76828
  13        2PX         0.20505  -0.00010
  14        2PY         0.08656  -0.39505
  15        2PZ         0.00370  -0.23676
  16 4   C  1S          0.09987   0.09729
  17        2S         -0.74012  -0.76835
  18        2PX        -0.05018   0.20499
  19        2PY         0.41711   0.39506
  20        2PZ         0.12291   0.11858
  21 5   C  1S         -0.12057  -0.09729
  22        2S          0.89352   0.76839
  23        2PX         0.01814  -0.20498
  24        2PY        -0.50358  -0.39507
  25        2PZ         0.07475   0.11855
  26 6   C  1S          0.02069   0.09728
  27        2S         -0.15329  -0.76828
  28        2PX        -0.20501   0.00013
  29        2PY         0.08644   0.39505
  30        2PZ        -0.00366  -0.23676
  31 7   H  1S          0.02948   0.01127
  32 8   H  1S         -0.17146  -0.01127
  33 9   H  1S          0.14197   0.01125
  34 10  H  1S          0.02950  -0.01127
  35 11  H  1S         -0.17144   0.01127
  36 12  H  1S          0.14195  -0.01125
  37 13  H  1S          0.65558  -0.63751
  38 14  H  1S         -0.79156   0.63752
  39 15  H  1S          0.13607  -0.63748
  40 16  H  1S          0.65570   0.63751
  41 17  H  1S         -0.79162  -0.63753
  42 18  H  1S          0.13587   0.63749
     Beta Molecular Orbital Coefficients:
                           1         2         3         4         5
                           O         O         O         O         O
     Eigenvalues --    -9.86111  -9.86043  -9.86042  -9.85913  -9.85912
   1 1   C  1S         -0.40291  -0.46946  -0.32308   0.46870  -0.32473
   2        2S         -0.03687  -0.03607  -0.02478   0.02403  -0.01659
   3        2PX        -0.00407  -0.00027  -0.00468   0.00101   0.00381
   4        2PY         0.00349   0.00403   0.00277  -0.00377   0.00261
   5        2PZ        -0.00237  -0.00501   0.00437  -0.00429  -0.00480
   6 2   C  1S          0.40330   0.51411  -0.24658   0.51615   0.24158
   7        2S          0.03689   0.03948  -0.01890   0.02644   0.01233
   8        2PX         0.00407   0.00099  -0.00458   0.00035  -0.00392
   9        2PY        -0.00349  -0.00441   0.00212  -0.00415  -0.00194
  10        2PZ        -0.00237  -0.00427  -0.00509   0.00343  -0.00545
  11 3   C  1S         -0.40082  -0.04386   0.56682   0.04816   0.56961
  12        2S         -0.03676  -0.00338   0.04357   0.00247   0.02923
  13        2PX         0.00000   0.00740   0.00058   0.00736  -0.00062
  14        2PY         0.00347   0.00038  -0.00487  -0.00039  -0.00458
  15        2PZ         0.00472   0.00026  -0.00332   0.00013   0.00153
  16 4   C  1S          0.40287  -0.46938  -0.32327  -0.46858   0.32484
  17        2S          0.03687  -0.03606  -0.02479  -0.02402   0.01661
  18        2PX        -0.00407   0.00027   0.00468   0.00101   0.00381
  19        2PY        -0.00349   0.00403   0.00277   0.00377  -0.00261
  20        2PZ        -0.00237   0.00501  -0.00437  -0.00429  -0.00481
  21 5   C  1S         -0.40328   0.51403  -0.24668  -0.51608  -0.24179
  22        2S         -0.03689   0.03948  -0.01891  -0.02643  -0.01235
  23        2PX         0.00407  -0.00099   0.00458   0.00035  -0.00392
  24        2PY         0.00349  -0.00441   0.00212   0.00415   0.00194
  25        2PZ        -0.00237   0.00427   0.00509   0.00342  -0.00546
  26 6   C  1S          0.40086  -0.04407   0.56682  -0.04830  -0.56957
  27        2S          0.03677  -0.00339   0.04357  -0.00249  -0.02922
  28        2PX         0.00000  -0.00740  -0.00058   0.00736  -0.00062
  29        2PY        -0.00348   0.00038  -0.00487   0.00039   0.00458
  30        2PZ         0.00472  -0.00026   0.00332   0.00013   0.00153
  31 7   H  1S         -0.00496   0.00052  -0.00674   0.00054   0.00636
  32 8   H  1S          0.00499  -0.00611   0.00293   0.00576   0.00270
  33 9   H  1S         -0.00498   0.00558   0.00384   0.00523  -0.00362
  34 10  H  1S          0.00496   0.00052  -0.00674  -0.00054  -0.00636
  35 11  H  1S         -0.00499  -0.00611   0.00293  -0.00576  -0.00269
  36 12  H  1S          0.00498   0.00558   0.00384  -0.00523   0.00362
  37 13  H  1S          0.00669   0.00750   0.00516  -0.00662   0.00458
  38 14  H  1S         -0.00670  -0.00821   0.00394  -0.00728  -0.00341
  39 15  H  1S          0.00666   0.00070  -0.00906  -0.00068  -0.00804
  40 16  H  1S         -0.00669   0.00750   0.00516   0.00661  -0.00458
  41 17  H  1S          0.00670  -0.00821   0.00394   0.00728   0.00341
  42 18  H  1S         -0.00666   0.00070  -0.00906   0.00068   0.00804
                           6         7         8         9        10
                           O         O         O         O         O
     Eigenvalues --    -9.85824  -1.04473  -0.94536  -0.94532  -0.78945
   1 1   C  1S          0.40337  -0.10110   0.12251  -0.07373   0.10158
   2        2S          0.01572   0.23704  -0.30824   0.18550  -0.28955
   3        2PX        -0.00253   0.04990   0.00163   0.06434   0.10138
   4        2PY        -0.00306  -0.06378   0.08939  -0.05380   0.08634
   5        2PZ        -0.00144   0.02881  -0.06568  -0.07364  -0.08079
   6 2   C  1S          0.40301  -0.10111   0.12509   0.06926   0.00519
   7        2S          0.01569   0.23705  -0.31473  -0.17427  -0.01479
   8        2PX        -0.00253   0.04990  -0.00068  -0.06436   0.11439
   9        2PY        -0.00306  -0.06378   0.09127   0.05054   0.00441
  10        2PZ         0.00144  -0.02881   0.06298  -0.07598   0.19327
  11 3   C  1S          0.40535  -0.10110   0.00260   0.14296  -0.10675
  12        2S          0.01587   0.23701  -0.00653  -0.35970   0.30428
  13        2PX         0.00000  -0.00002   0.11193  -0.00198  -0.10391
  14        2PY        -0.00308  -0.06378   0.00190   0.10432  -0.09073
  15        2PZ         0.00290  -0.05759   0.00067   0.03662   0.04980
  16 4   C  1S          0.40340  -0.10110  -0.12253   0.07370   0.10156
  17        2S          0.01572   0.23704   0.30828  -0.18544  -0.28950
  18        2PX         0.00253  -0.04989   0.00166   0.06431  -0.10136
  19        2PY        -0.00306  -0.06378  -0.08940   0.05378   0.08632
  20        2PZ         0.00144  -0.02884  -0.06573  -0.07361   0.08077
  21 5   C  1S          0.40302  -0.10111  -0.12511  -0.06923   0.00516
  22        2S          0.01569   0.23705   0.31477   0.17419  -0.01471
  23        2PX         0.00253  -0.04989  -0.00066  -0.06433  -0.11437
  24        2PY        -0.00306  -0.06379  -0.09129  -0.05052   0.00439
  25        2PZ        -0.00144   0.02883   0.06303  -0.07596  -0.19328
  26 6   C  1S          0.40531  -0.10110  -0.00256  -0.14296  -0.10676
  27        2S          0.01587   0.23701   0.00645   0.35971   0.30432
  28        2PX         0.00000  -0.00001   0.11193  -0.00204   0.10394
  29        2PY        -0.00308  -0.06378  -0.00187  -0.10432  -0.09074
  30        2PZ        -0.00290   0.05759   0.00066   0.03662  -0.04981
  31 7   H  1S         -0.00461   0.02054   0.00082   0.04546   0.07544
  32 8   H  1S         -0.00459   0.02054   0.03978   0.02202  -0.00365
  33 9   H  1S         -0.00459   0.02054   0.03896  -0.02344  -0.07176
  34 10  H  1S         -0.00461   0.02054  -0.00083  -0.04546   0.07543
  35 11  H  1S         -0.00459   0.02054  -0.03977  -0.02202  -0.00368
  36 12  H  1S         -0.00459   0.02054  -0.03895   0.02345  -0.07178
  37 13  H  1S         -0.00516   0.04841  -0.08248   0.04964  -0.10281
  38 14  H  1S         -0.00515   0.04841  -0.08421  -0.04663  -0.00526
  39 15  H  1S         -0.00519   0.04840  -0.00175  -0.09625   0.10804
  40 16  H  1S         -0.00516   0.04841   0.08249  -0.04962  -0.10279
  41 17  H  1S         -0.00515   0.04841   0.08422   0.04661  -0.00522
  42 18  H  1S         -0.00519   0.04840   0.00173   0.09625   0.10805
                          11        12        13        14        15
                           O         O         O         O         O
     Eigenvalues --    -0.78943  -0.67986  -0.62424  -0.62019  -0.61945
   1 1   C  1S          0.06461  -0.01123  -0.07849  -0.00018  -0.03991
   2        2S         -0.18418   0.02768   0.26976   0.00063   0.14411
   3        2PX        -0.06872   0.19439  -0.13434  -0.16640  -0.12268
   4        2PY         0.05492   0.13928  -0.08613  -0.00015   0.19070
   5        2PZ         0.17930   0.11224  -0.07842   0.28743  -0.07086
   6 2   C  1S         -0.12027  -0.01124   0.07849   0.00018  -0.03991
   7        2S          0.34284   0.02769  -0.26977  -0.00060   0.14410
   8        2PX        -0.04379   0.19440   0.13504  -0.16580  -0.12269
   9        2PY        -0.10223   0.13929   0.08612   0.00022   0.19071
  10        2PZ         0.03641  -0.11223  -0.07706  -0.28779   0.07085
  11 3   C  1S          0.05567  -0.01123  -0.07849  -0.00018  -0.03991
  12        2S         -0.15869   0.02767   0.26977   0.00064   0.14411
  13        2PX        -0.19931   0.00001  -0.00074   0.33213  -0.00005
  14        2PY         0.04732   0.13927  -0.08611  -0.00020   0.19070
  15        2PZ        -0.02599  -0.22442   0.15543   0.00039   0.14167
  16 4   C  1S          0.06464  -0.01123   0.07849   0.00018  -0.03992
  17        2S         -0.18426   0.02768  -0.26976  -0.00059   0.14412
  18        2PX         0.06871  -0.19437  -0.13433  -0.16642   0.12271
  19        2PY         0.05494   0.13928   0.08613   0.00019   0.19069
  20        2PZ        -0.17932  -0.11228  -0.07843   0.28741   0.07083
  21 5   C  1S         -0.12027  -0.01124  -0.07849  -0.00018  -0.03991
  22        2S          0.34285   0.02769   0.26977   0.00064   0.14409
  23        2PX         0.04378  -0.19438   0.13503  -0.16581   0.12270
  24        2PY        -0.10223   0.13928  -0.08612  -0.00018   0.19071
  25        2PZ        -0.03644   0.11227  -0.07709  -0.28778  -0.07082
  26 6   C  1S          0.05565  -0.01123   0.07849   0.00018  -0.03991
  27        2S         -0.15862   0.02767  -0.26976  -0.00060   0.14411
  28        2PX         0.19930  -0.00005  -0.00076   0.33213   0.00001
  29        2PY         0.04730   0.13927   0.08611   0.00024   0.19069
  30        2PZ         0.02597   0.22442   0.15543   0.00041  -0.14167
  31 7   H  1S         -0.03931  -0.06411  -0.14380  -0.00032   0.11391
  32 8   H  1S          0.08499  -0.06412   0.14383   0.00031   0.11390
  33 9   H  1S         -0.04568  -0.06412  -0.14386  -0.00033   0.11392
  34 10  H  1S         -0.03934  -0.06411   0.14381   0.00034   0.11391
  35 11  H  1S          0.08499  -0.06412  -0.14383  -0.00028   0.11391
  36 12  H  1S         -0.04566  -0.06412   0.14386   0.00035   0.11391
  37 13  H  1S         -0.06540  -0.09684   0.11893   0.00025  -0.09306
  38 14  H  1S          0.12173  -0.09684  -0.11892  -0.00028  -0.09307
  39 15  H  1S         -0.05635  -0.09683   0.11891   0.00029  -0.09306
  40 16  H  1S         -0.06542  -0.09684  -0.11893  -0.00026  -0.09306
  41 17  H  1S          0.12173  -0.09684   0.11892   0.00027  -0.09308
  42 18  H  1S         -0.05632  -0.09683  -0.11891  -0.00030  -0.09305
                          16        17        18        19        20
                           O         O         O         O         O
     Eigenvalues --    -0.55943  -0.55936  -0.54941  -0.54939  -0.49042
   1 1   C  1S         -0.03509  -0.01574   0.03268  -0.02394  -0.00943
   2        2S          0.10903   0.04893  -0.11777   0.08628   0.05697
   3        2PX         0.26801   0.18605   0.15080  -0.08369  -0.27693
   4        2PY         0.16816   0.07552  -0.25708   0.18835  -0.08072
   5        2PZ         0.21151  -0.01938   0.05759  -0.08858  -0.12248
   6 2   C  1S         -0.03116   0.02255   0.03707   0.01631   0.00547
   7        2S          0.09682  -0.07008  -0.13360  -0.05878  -0.03307
   8        2PX         0.22466  -0.23657   0.16534   0.04941   0.29481
   9        2PY         0.14945  -0.10812  -0.29160  -0.12841   0.04678
  10        2PZ        -0.21097   0.02399  -0.07533  -0.07421   0.16138
  11 3   C  1S          0.00391   0.03827   0.00439   0.04025   0.00397
  12        2S         -0.01214  -0.11894  -0.01582  -0.14506  -0.02397
  13        2PX        -0.11956   0.01228   0.04308  -0.00471  -0.31957
  14        2PY        -0.01870  -0.18361  -0.03456  -0.31670   0.03388
  15        2PZ         0.03778   0.36823  -0.02146  -0.19667  -0.12635
  16 4   C  1S          0.03508   0.01575  -0.03269   0.02393  -0.00942
  17        2S         -0.10901  -0.04896   0.11779  -0.08625   0.05696
  18        2PX         0.26800   0.18591   0.15082  -0.08367   0.27696
  19        2PY        -0.16819  -0.07545   0.25711  -0.18830  -0.08073
  20        2PZ         0.21165  -0.01939   0.05759  -0.08855   0.12246
  21 5   C  1S          0.03116  -0.02256  -0.03708  -0.01630   0.00545
  22        2S         -0.09680   0.07012   0.13362   0.05875  -0.03299
  23        2PX         0.22467  -0.23642   0.16536   0.04939  -0.29495
  24        2PY        -0.14949   0.10806   0.29162   0.12836   0.04685
  25        2PZ        -0.21112   0.02400  -0.07533  -0.07419  -0.16132
  26 6   C  1S         -0.00390  -0.03828  -0.00438  -0.04025   0.00395
  27        2S          0.01210   0.11895   0.01578   0.14507  -0.02389
  28        2PX        -0.11958   0.01214   0.04308  -0.00473   0.31959
  29        2PY         0.01877   0.18361   0.03450   0.31671   0.03396
  30        2PZ         0.03792   0.36822  -0.02143  -0.19667   0.12652
  31 7   H  1S         -0.01519  -0.14695   0.01911   0.17536  -0.09241
  32 8   H  1S          0.11980  -0.08647   0.16135   0.07114  -0.12770
  33 9   H  1S          0.13488   0.06035   0.14222  -0.10416   0.22004
  34 10  H  1S          0.01511   0.14695  -0.01914  -0.17536  -0.09235
  35 11  H  1S         -0.11975   0.08654  -0.16134  -0.07116  -0.12765
  36 12  H  1S         -0.13485  -0.06043  -0.14220   0.10418   0.22004
  37 13  H  1S         -0.11577  -0.05198   0.14679  -0.10754   0.08907
  38 14  H  1S         -0.10289   0.07441   0.16649   0.07330  -0.05164
  39 15  H  1S          0.01288   0.12638   0.01973   0.18081  -0.03740
  40 16  H  1S          0.11579   0.05192  -0.14681   0.10751   0.08908
  41 17  H  1S          0.10293  -0.07436  -0.16650  -0.07328  -0.05168
  42 18  H  1S         -0.01295  -0.12638  -0.01970  -0.18081  -0.03744
                          21        22        23        24        25
                           O         O         O         V         V
     Eigenvalues --    -0.49040  -0.39123  -0.39121  -0.28415   0.01910
   1 1   C  1S          0.00086   0.01022   0.01120   0.00376   0.01368
   2        2S         -0.00522  -0.02678  -0.02935  -0.03338  -0.09565
   3        2PX        -0.15097   0.12107   0.06078  -0.10346  -0.09165
   4        2PY         0.00749  -0.28300  -0.31018   0.31898   0.32063
   5        2PZ         0.31737  -0.01277   0.11049  -0.05972  -0.05291
   6 2   C  1S          0.00772   0.00459  -0.01445  -0.00376   0.01368
   7        2S         -0.04669  -0.01203   0.03785   0.03338  -0.09565
   8        2PX         0.11215   0.08447  -0.10588   0.10345  -0.09164
   9        2PY         0.06620  -0.12717   0.40016  -0.31898   0.32063
  10        2PZ        -0.29946   0.05786   0.09503  -0.05973   0.05294
  11 3   C  1S         -0.00859  -0.01480   0.00325   0.00377   0.01369
  12        2S          0.05193   0.03879  -0.00851  -0.03339  -0.09571
  13        2PX        -0.14712  -0.02075  -0.09466   0.00001   0.00001
  14        2PY        -0.07369   0.41012  -0.09002   0.31896   0.32059
  15        2PZ         0.27472   0.14268  -0.03134   0.11945   0.10585
  16 4   C  1S          0.00088   0.01021   0.01120  -0.00376   0.01368
  17        2S         -0.00532  -0.02676  -0.02936   0.03338  -0.09565
  18        2PX         0.15114  -0.12107  -0.06078  -0.10346   0.09164
  19        2PY         0.00741  -0.28295  -0.31024  -0.31898   0.32063
  20        2PZ        -0.31727   0.01276  -0.11050  -0.05972   0.05292
  21 5   C  1S          0.00773   0.00459  -0.01445   0.00376   0.01368
  22        2S         -0.04674  -0.01202   0.03785  -0.03338  -0.09566
  23        2PX        -0.11206  -0.08446   0.10587   0.10345   0.09164
  24        2PY         0.06616  -0.12709   0.40018   0.31899   0.32064
  25        2PZ         0.29937  -0.05786  -0.09504  -0.05973  -0.05295
  26 6   C  1S         -0.00860  -0.01481   0.00325  -0.00376   0.01369
  27        2S          0.05197   0.03879  -0.00850   0.03339  -0.09571
  28        2PX         0.14708   0.02077   0.09466   0.00000   0.00000
  29        2PY        -0.07365   0.41013  -0.08994  -0.31896   0.32060
  30        2PZ        -0.27463  -0.14268   0.03134   0.11945  -0.10585
  31 7   H  1S          0.20075   0.17453  -0.03829  -0.16680  -0.25502
  32 8   H  1S         -0.18036  -0.05408   0.17028   0.16681  -0.25504
  33 9   H  1S         -0.02034  -0.12041  -0.13199  -0.16681  -0.25502
  34 10  H  1S          0.20078   0.17452  -0.03832   0.16680  -0.25502
  35 11  H  1S         -0.18040  -0.05412   0.17027  -0.16681  -0.25504
  36 12  H  1S         -0.02040  -0.12044  -0.13197   0.16681  -0.25502
  37 13  H  1S         -0.00825   0.20295   0.22242  -0.25373   0.42432
  38 14  H  1S         -0.07304   0.09121  -0.28695   0.25373   0.42433
  39 15  H  1S          0.08129  -0.29409   0.06455  -0.25372   0.42431
  40 16  H  1S         -0.00820   0.20291   0.22246   0.25373   0.42432
  41 17  H  1S         -0.07302   0.09115  -0.28697  -0.25373   0.42434
  42 18  H  1S          0.08126  -0.29410   0.06450   0.25372   0.42431
                          26        27        28        29        30
                           V         V         V         V         V
     Eigenvalues --     0.11630   0.11632   0.11856   0.11862   0.14610
   1 1   C  1S          0.00075  -0.00228   0.06363   0.10902   0.00102
   2        2S          0.00195   0.00704  -0.37916  -0.64982  -0.00213
   3        2PX        -0.12683  -0.15671  -0.29090  -0.10150   0.42031
   4        2PY        -0.33379   0.34439  -0.19215  -0.32096  -0.02179
   5        2PZ         0.25681   0.23963   0.23418  -0.28942  -0.26509
   6 2   C  1S          0.00182   0.00158   0.06264  -0.10956   0.00254
   7        2S         -0.00194  -0.00713  -0.37329   0.65306  -0.00682
   8        2PX        -0.02804   0.19905  -0.28986   0.10426   0.41527
   9        2PY        -0.46350  -0.12304  -0.18922   0.32274  -0.04783
  10        2PZ        -0.09672   0.33772  -0.23680  -0.28736  -0.25623
  11 3   C  1S          0.00165   0.00181  -0.12620   0.00060   0.00140
  12        2S         -0.00734  -0.00193   0.75214  -0.00350  -0.00403
  13        2PX        -0.39035   0.10444  -0.00096   0.40154   0.42444
  14        2PY        -0.13145  -0.46129   0.37411  -0.00589  -0.02571
  15        2PZ        -0.00430  -0.02392  -0.26903   0.00045  -0.25637
  16 4   C  1S         -0.00231   0.00077   0.06360   0.10904  -0.00130
  17        2S          0.00730   0.00195  -0.37911  -0.64985   0.00388
  18        2PX        -0.13221  -0.15706   0.29075   0.09833   0.41971
  19        2PY         0.33842  -0.33988  -0.18472  -0.32525   0.02275
  20        2PZ         0.25936   0.23365  -0.23103   0.29320  -0.26484
  21 5   C  1S         -0.00237   0.00053   0.06261  -0.10958  -0.00253
  22        2S          0.00523  -0.00545  -0.37326   0.65309   0.00677
  23        2PX        -0.03245   0.20219   0.28969  -0.10112   0.41473
  24        2PY         0.46515   0.11673  -0.18183   0.32694   0.04781
  25        2PZ        -0.10196   0.33397   0.23358   0.29118  -0.25716
  26 6   C  1S          0.00046  -0.00241  -0.12620   0.00056  -0.00112
  27        2S         -0.00520   0.00552   0.75216  -0.00345   0.00230
  28        2PX        -0.38851   0.11113  -0.00472  -0.40151   0.42499
  29        2PY         0.12517   0.46309   0.37409   0.00259   0.02478
  30        2PZ        -0.00888  -0.02261   0.26901  -0.00211  -0.25674
  31 7   H  1S         -0.05370  -0.20148  -0.26244  -0.00136  -0.31351
  32 8   H  1S         -0.20237  -0.04958   0.12808  -0.22915  -0.59704
  33 9   H  1S         -0.14763   0.14737   0.13008   0.22825  -0.28317
  34 10  H  1S          0.05806   0.20023  -0.26242   0.00379   0.31434
  35 11  H  1S          0.20123   0.05396   0.13258  -0.22662   0.59708
  36 12  H  1S          0.14442  -0.15049   0.13458   0.22564   0.28234
  37 13  H  1S         -0.43638   0.44787  -0.15044  -0.24696  -0.02635
  38 14  H  1S         -0.60476  -0.15881  -0.14816   0.24839  -0.05733
  39 15  H  1S         -0.16969  -0.60185   0.28918  -0.00676  -0.03081
  40 16  H  1S          0.43997  -0.44437  -0.14078  -0.25254   0.02717
  41 17  H  1S          0.60604   0.15391  -0.13854   0.25385   0.05731
  42 18  H  1S          0.16482   0.60324   0.28915   0.00427   0.03002
                          31        32        33        34        35
                           V         V         V         V         V
     Eigenvalues --     0.14612   0.16249   0.17908   0.31384   0.31385
   1 1   C  1S          0.00235   0.06601  -0.10209   0.00099   0.00404
   2        2S         -0.00672  -0.42270   0.60859  -0.00162  -0.00541
   3        2PX         0.25392   0.23571   0.05996   0.20631   0.61393
   4        2PY        -0.04242   0.15083   0.29502  -0.01541  -0.06734
   5        2PZ         0.41928   0.13599   0.03510  -0.02163   0.38729
   6 2   C  1S         -0.00016   0.06605   0.10208   0.00308  -0.00278
   7        2S          0.00126  -0.42296  -0.60855  -0.00438   0.00346
   8        2PX         0.26246   0.23573  -0.05991   0.51409  -0.39386
   9        2PY        -0.00080   0.15069  -0.29509  -0.05052   0.04718
  10        2PZ         0.42473  -0.13601   0.03511  -0.19845   0.33317
  11 3   C  1S         -0.00197   0.06606  -0.10211  -0.00399  -0.00116
  12        2S          0.00469  -0.42303   0.60869   0.00548   0.00128
  13        2PX         0.26286  -0.00012   0.00008   0.03625  -0.11968
  14        2PY         0.03993   0.15062   0.29493   0.06611   0.02037
  15        2PZ         0.41535  -0.27211  -0.06885   0.71199   0.21721
  16 4   C  1S         -0.00220   0.06601   0.10209   0.00088   0.00406
  17        2S          0.00576  -0.42272  -0.60858  -0.00094  -0.00556
  18        2PX         0.25362  -0.23571   0.06005  -0.20598  -0.61412
  19        2PY         0.04191   0.15082  -0.29503  -0.01565  -0.06729
  20        2PZ         0.42020  -0.13604   0.03499   0.02189  -0.38714
  21 5   C  1S         -0.00016   0.06605  -0.10208   0.00301  -0.00286
  22        2S          0.00073  -0.42295   0.60855  -0.00390   0.00397
  23        2PX         0.26206  -0.23573  -0.05996  -0.51392   0.39420
  24        2PY         0.00190   0.15069   0.29508  -0.05069   0.04700
  25        2PZ         0.42492   0.13605   0.03500   0.19816  -0.33319
  26 6   C  1S          0.00214   0.06607   0.10210  -0.00396  -0.00126
  27        2S         -0.00574  -0.42305  -0.60866   0.00529   0.00194
  28        2PX         0.26195   0.00006  -0.00005  -0.03647   0.11961
  29        2PY        -0.04049   0.15061  -0.29492   0.06617   0.02014
  30        2PZ         0.41513   0.27210  -0.06885  -0.71187  -0.21761
  31 7   H  1S          0.50799   0.46009   0.35455  -0.64670  -0.19782
  32 8   H  1S         -0.01823   0.46008  -0.35391   0.49433  -0.46148
  33 9   H  1S         -0.52587   0.45989   0.35385   0.15200   0.65905
  34 10  H  1S         -0.50748   0.46008  -0.35457  -0.64687  -0.19726
  35 11  H  1S          0.01728   0.46007   0.35390   0.49473  -0.46105
  36 12  H  1S          0.52634   0.45986  -0.35387   0.15257   0.65892
  37 13  H  1S         -0.05067   0.23885   0.15833  -0.01671  -0.07336
  38 14  H  1S         -0.00132   0.23874  -0.15842  -0.05499   0.05144
  39 15  H  1S          0.04814   0.23867   0.15818   0.07199   0.02227
  40 16  H  1S          0.05023   0.23884  -0.15834  -0.01711  -0.07327
  41 17  H  1S          0.00225   0.23874   0.15841  -0.05527   0.05114
  42 18  H  1S         -0.04862   0.23867  -0.15818   0.07210   0.02188
                          36        37        38        39        40
                           V         V         V         V         V
     Eigenvalues --     0.36141   0.36145   0.40510   0.46063   0.52112
   1 1   C  1S         -0.06283  -0.10341   0.00000   0.00940   0.08157
   2        2S          0.44328   0.72956  -0.00003  -0.07525  -0.60451
   3        2PX         0.18376  -0.30282  -0.37823  -0.53894  -0.09310
   4        2PY        -0.13599  -0.22383   0.00010  -0.15319   0.34071
   5        2PZ        -0.51361   0.20168   0.65579  -0.31075   0.13195
   6 2   C  1S         -0.12098   0.00274   0.00001  -0.00940   0.04571
   7        2S          0.85347  -0.01930  -0.00006   0.07526  -0.33873
   8        2PX        -0.15629   0.31800   0.37833   0.53891  -0.10432
   9        2PY        -0.26183   0.00595   0.00000   0.15319   0.19092
  10        2PZ         0.10657   0.54142   0.65579  -0.31070  -0.16422
  11 3   C  1S         -0.05813   0.10612  -0.00001   0.00938  -0.12725
  12        2S          0.41007  -0.74868   0.00001  -0.07514   0.94299
  13        2PX         0.55073   0.30182   0.75708   0.00037   0.03312
  14        2PY        -0.12592   0.22969  -0.00008  -0.15320  -0.53153
  15        2PZ         0.09094  -0.16526  -0.00026   0.62203  -0.02280
  16 4   C  1S          0.06285   0.10340   0.00001  -0.00940   0.08154
  17        2S         -0.44336  -0.72951  -0.00005   0.07526  -0.60427
  18        2PX         0.18322  -0.30256   0.37889  -0.53847   0.09300
  19        2PY         0.13611   0.22376   0.00007   0.15318   0.34061
  20        2PZ        -0.51386   0.20194  -0.65540  -0.31158  -0.13182
  21 5   C  1S          0.12097  -0.00272   0.00000   0.00940   0.04567
  22        2S         -0.85346   0.01920  -0.00005  -0.07527  -0.33844
  23        2PX        -0.15636   0.31742  -0.37899   0.53844   0.10425
  24        2PY         0.26183  -0.00581   0.00003  -0.15318   0.19081
  25        2PZ         0.10649   0.54176  -0.65540  -0.31153   0.16415
  26 6   C  1S          0.05811  -0.10613   0.00000  -0.00938  -0.12726
  27        2S         -0.40999   0.74872   0.00000   0.07514   0.94304
  28        2PX         0.55078   0.30174  -0.75708  -0.00058  -0.03337
  29        2PY         0.12580  -0.22977  -0.00011   0.15320  -0.53155
  30        2PZ         0.09033  -0.16559  -0.00051   0.62204   0.02281
  31 7   H  1S          0.19034  -0.34831  -0.00027   0.39836  -0.18098
  32 8   H  1S          0.39694  -0.00876   0.00042  -0.39835   0.06493
  33 9   H  1S          0.20646   0.33910  -0.00025   0.39840   0.11599
  34 10  H  1S         -0.19090   0.34800   0.00026  -0.39836  -0.18098
  35 11  H  1S         -0.39692   0.00938  -0.00011   0.39835   0.06495
  36 12  H  1S         -0.20592  -0.33942   0.00027  -0.39840   0.11601
  37 13  H  1S         -0.22614  -0.37222   0.00014  -0.19663   0.53559
  38 14  H  1S         -0.43542   0.00990   0.00000   0.19663   0.30012
  39 15  H  1S         -0.20937   0.38196  -0.00011  -0.19665  -0.83555
  40 16  H  1S          0.22631   0.37211   0.00010   0.19662   0.53544
  41 17  H  1S          0.43542  -0.00968   0.00004  -0.19662   0.29994
  42 18  H  1S          0.20918  -0.38207  -0.00015   0.19665  -0.83558
                          41        42
                           V         V
     Eigenvalues --     0.52114   0.69596
   1 1   C  1S          0.09985  -0.09729
   2        2S         -0.73993   0.76834
   3        2PX         0.05008   0.20511
   4        2PY         0.41703  -0.39506
   5        2PZ        -0.12273   0.11838
   6 2   C  1S         -0.12056   0.09729
   7        2S          0.89341  -0.76838
   8        2PX        -0.01802  -0.20509
   9        2PY        -0.50354   0.39507
  10        2PZ        -0.07453   0.11835
  11 3   C  1S          0.02073  -0.09728
  12        2S         -0.15361   0.76828
  13        2PX         0.20505  -0.00010
  14        2PY         0.08656  -0.39505
  15        2PZ         0.00370  -0.23676
  16 4   C  1S          0.09987   0.09729
  17        2S         -0.74012  -0.76835
  18        2PX        -0.05018   0.20499
  19        2PY         0.41711   0.39506
  20        2PZ         0.12291   0.11858
  21 5   C  1S         -0.12057  -0.09729
  22        2S          0.89352   0.76839
  23        2PX         0.01814  -0.20498
  24        2PY        -0.50358  -0.39507
  25        2PZ         0.07475   0.11855
  26 6   C  1S          0.02069   0.09728
  27        2S         -0.15329  -0.76828
  28        2PX        -0.20501   0.00013
  29        2PY         0.08644   0.39505
  30        2PZ        -0.00366  -0.23676
  31 7   H  1S          0.02948   0.01127
  32 8   H  1S         -0.17146  -0.01127
  33 9   H  1S          0.14197   0.01125
  34 10  H  1S          0.02950  -0.01127
  35 11  H  1S         -0.17144   0.01127
  36 12  H  1S          0.14195  -0.01125
  37 13  H  1S          0.65558  -0.63751
  38 14  H  1S         -0.79156   0.63752
  39 15  H  1S          0.13607  -0.63748
  40 16  H  1S          0.65570   0.63751
  41 17  H  1S         -0.79162  -0.63753
  42 18  H  1S          0.13587   0.63749
     Alpha Density Matrix:
                           1         2         3         4         5
   1 1   C  1S          1.03163
   2        2S         -0.09426   0.45277
   3        2PX         0.00841  -0.03633   0.39339
   4        2PY         0.00321  -0.04091  -0.07595   0.61164
   5        2PZ         0.00486  -0.02098   0.04065  -0.04384   0.34645
   6 2   C  1S          0.01218  -0.03235  -0.00346  -0.01195  -0.05802
   7        2S         -0.03235   0.03253   0.01909   0.04659   0.13230
   8        2PX        -0.00346   0.01911   0.01515  -0.02392   0.00401
   9        2PY        -0.01195   0.04659  -0.02393   0.03001   0.05675
  10        2PZ         0.05803  -0.13231  -0.00399  -0.05675  -0.24987
  11 3   C  1S         -0.00082  -0.00004   0.00540   0.00886   0.00594
  12        2S         -0.00004   0.01717  -0.01862  -0.05232  -0.01053
  13        2PX        -0.00245  -0.00019   0.02763   0.01900   0.02054
  14        2PY         0.00886  -0.05230  -0.02798   0.10190  -0.03808
  15        2PZ        -0.00765   0.02141   0.00304   0.04329   0.04125
  16 4   C  1S         -0.00272   0.00923   0.00617   0.00550   0.00356
  17        2S          0.00923  -0.02947  -0.02030  -0.03466  -0.01173
  18        2PX        -0.00617   0.02031   0.00016   0.03566   0.02580
  19        2PY         0.00550  -0.03466  -0.03566   0.10039  -0.02059
  20        2PZ        -0.00356   0.01172   0.02578   0.02059  -0.02962
  21 5   C  1S         -0.00082  -0.00004   0.00785   0.00886   0.00171
  22        2S         -0.00004   0.01717  -0.01843  -0.05231  -0.01087
  23        2PX        -0.00785   0.01844   0.04806   0.04697  -0.00874
  24        2PY         0.00886  -0.05231  -0.04698   0.10191  -0.00519
  25        2PZ         0.00170  -0.01086   0.00875  -0.00520   0.02082
  26 6   C  1S          0.01218  -0.03236  -0.05199  -0.01195   0.02602
  27        2S         -0.03236   0.03255   0.12415   0.04658  -0.04962
  28        2PX         0.04853  -0.10504  -0.18361  -0.06111   0.11076
  29        2PY        -0.01196   0.04660   0.03720   0.03001  -0.04910
  30        2PZ        -0.03200   0.08268   0.11873   0.00764  -0.05107
  31 7   H  1S          0.00507  -0.00141   0.01883  -0.12321   0.05714
  32 8   H  1S         -0.00867   0.04043   0.05739  -0.06577  -0.00312
  33 9   H  1S         -0.00589   0.03517   0.02610  -0.08690   0.01506
  34 10  H  1S         -0.00867   0.04044   0.02599  -0.06575   0.05127
  35 11  H  1S          0.00507  -0.00141   0.05891  -0.12321  -0.01226
  36 12  H  1S         -0.05441   0.14977  -0.19940   0.04322  -0.11513
  37 13  H  1S         -0.03159   0.02226  -0.03144  -0.22691  -0.01815
  38 14  H  1S          0.02162  -0.10654  -0.04197   0.22025  -0.06973
  39 15  H  1S          0.00177  -0.01860  -0.04381   0.12933  -0.00440
  40 16  H  1S          0.00658  -0.04368  -0.03887   0.13818  -0.02244
  41 17  H  1S          0.00177  -0.01860  -0.02572   0.12934  -0.03574
  42 18  H  1S          0.02162  -0.10654  -0.08138   0.22025  -0.00148
                           6         7         8         9        10
   6 2   C  1S          1.03163
   7        2S         -0.09426   0.45276
   8        2PX         0.00841  -0.03633   0.39341
   9        2PY         0.00321  -0.04091  -0.07594   0.61165
  10        2PZ        -0.00486   0.02097  -0.04066   0.04385   0.34645
  11 3   C  1S          0.01219  -0.03236  -0.05198  -0.01195  -0.02602
  12        2S         -0.03236   0.03256   0.12413   0.04659   0.04961
  13        2PX         0.04853  -0.10504  -0.18357  -0.06110  -0.11077
  14        2PY        -0.01196   0.04660   0.03719   0.03001   0.04910
  15        2PZ         0.03202  -0.08272  -0.11876  -0.00765  -0.05110
  16 4   C  1S         -0.00082  -0.00004   0.00785   0.00886  -0.00170
  17        2S         -0.00004   0.01717  -0.01844  -0.05231   0.01086
  18        2PX        -0.00785   0.01843   0.04806   0.04698   0.00875
  19        2PY         0.00886  -0.05230  -0.04697   0.10191   0.00519
  20        2PZ        -0.00171   0.01086  -0.00874   0.00519   0.02082
  21 5   C  1S         -0.00272   0.00923   0.00617   0.00550  -0.00356
  22        2S          0.00923  -0.02947  -0.02030  -0.03467   0.01173
  23        2PX        -0.00617   0.02031   0.00016   0.03566  -0.02580
  24        2PY         0.00550  -0.03467  -0.03566   0.10039   0.02060
  25        2PZ         0.00356  -0.01171  -0.02578  -0.02060  -0.02963
  26 6   C  1S         -0.00082  -0.00004   0.00540   0.00886  -0.00595
  27        2S         -0.00004   0.01716  -0.01863  -0.05232   0.01054
  28        2PX        -0.00245  -0.00018   0.02763   0.01899  -0.02055
  29        2PY         0.00886  -0.05230  -0.02798   0.10190   0.03809
  30        2PZ         0.00765  -0.02141  -0.00304  -0.04328   0.04124
  31 7   H  1S         -0.00867   0.04044   0.02600  -0.06576  -0.05128
  32 8   H  1S         -0.00589   0.03517   0.02610  -0.08691  -0.01507
  33 9   H  1S         -0.00867   0.04043   0.05738  -0.06576   0.00312
  34 10  H  1S          0.00507  -0.00142   0.01883  -0.12322  -0.05715
  35 11  H  1S         -0.05440   0.14977  -0.19942   0.04321   0.11511
  36 12  H  1S          0.00507  -0.00141   0.05891  -0.12322   0.01225
  37 13  H  1S          0.02162  -0.10654  -0.04197   0.22025   0.06974
  38 14  H  1S         -0.03159   0.02226  -0.03144  -0.22690   0.01816
  39 15  H  1S          0.02162  -0.10655  -0.08138   0.22025   0.00149
  40 16  H  1S          0.00177  -0.01860  -0.02572   0.12934   0.03575
  41 17  H  1S          0.00658  -0.04368  -0.03887   0.13819   0.02245
  42 18  H  1S          0.00177  -0.01860  -0.04381   0.12934   0.00441
                          11        12        13        14        15
  11 3   C  1S          1.03163
  12        2S         -0.09426   0.45277
  13        2PX         0.00000   0.00001   0.32296
  14        2PY         0.00322  -0.04093   0.00001   0.61162
  15        2PZ        -0.00971   0.04194  -0.00001   0.08770   0.41685
  16 4   C  1S          0.01218  -0.03235  -0.04852  -0.01195   0.03200
  17        2S         -0.03235   0.03255   0.10503   0.04660  -0.08268
  18        2PX         0.05198  -0.12415  -0.18362  -0.03721   0.11874
  19        2PY        -0.01195   0.04658   0.06112   0.03002  -0.00764
  20        2PZ        -0.02601   0.04961   0.11075   0.04910  -0.05109
  21 5   C  1S         -0.00082  -0.00004   0.00245   0.00886  -0.00765
  22        2S         -0.00004   0.01716   0.00018  -0.05230   0.02140
  23        2PX        -0.00540   0.01864   0.02764   0.02798  -0.00305
  24        2PY         0.00886  -0.05233  -0.01899   0.10190   0.04328
  25        2PZ         0.00594  -0.01054  -0.02056  -0.03809   0.04124
  26 6   C  1S         -0.00272   0.00923   0.00000   0.00550  -0.00712
  27        2S          0.00923  -0.02947  -0.00001  -0.03468   0.02345
  28        2PX         0.00000  -0.00001  -0.04452   0.00000   0.00000
  29        2PY         0.00550  -0.03468   0.00000   0.10036   0.04119
  30        2PZ         0.00712  -0.02345  -0.00002  -0.04119   0.01506
  31 7   H  1S         -0.00589   0.03519   0.00000  -0.08688  -0.03015
  32 8   H  1S         -0.00867   0.04046   0.03141  -0.06575  -0.04816
  33 9   H  1S          0.00507  -0.00140  -0.04006  -0.12320  -0.04489
  34 10  H  1S         -0.05440   0.14977  -0.00002   0.04323   0.23027
  35 11  H  1S          0.00507  -0.00139   0.04006  -0.12321  -0.04490
  36 12  H  1S         -0.00867   0.04045  -0.03140  -0.06575  -0.04815
  37 13  H  1S          0.00177  -0.01863  -0.01809   0.12933   0.04015
  38 14  H  1S          0.02162  -0.10657   0.03941   0.22025   0.07123
  39 15  H  1S         -0.03159   0.02224   0.00001  -0.22691   0.03632
  40 16  H  1S          0.02162  -0.10656  -0.03939   0.22022   0.07122
  41 17  H  1S          0.00177  -0.01863   0.01810   0.12934   0.04016
  42 18  H  1S          0.00658  -0.04370   0.00001   0.13817   0.04490
                          16        17        18        19        20
  16 4   C  1S          1.03163
  17        2S         -0.09426   0.45277
  18        2PX        -0.00841   0.03632   0.39339
  19        2PY         0.00321  -0.04091   0.07594   0.61164
  20        2PZ        -0.00486   0.02099   0.04065   0.04385   0.34646
  21 5   C  1S          0.01219  -0.03236   0.00346  -0.01195   0.05803
  22        2S         -0.03236   0.03254  -0.01909   0.04660  -0.13230
  23        2PX         0.00346  -0.01910   0.01517   0.02392   0.00400
  24        2PY        -0.01195   0.04660   0.02393   0.02999  -0.05674
  25        2PZ        -0.05803   0.13232  -0.00398   0.05674  -0.24986
  26 6   C  1S         -0.00082  -0.00004  -0.00540   0.00886  -0.00594
  27        2S         -0.00004   0.01717   0.01863  -0.05233   0.01053
  28        2PX         0.00245   0.00018   0.02763  -0.01899   0.02054
  29        2PY         0.00886  -0.05230   0.02797   0.10190   0.03808
  30        2PZ         0.00765  -0.02140   0.00305  -0.04329   0.04125
  31 7   H  1S         -0.00867   0.04044  -0.02599  -0.06576  -0.05127
  32 8   H  1S          0.00507  -0.00141  -0.05891  -0.12322   0.01225
  33 9   H  1S         -0.05441   0.14977   0.19939   0.04322   0.11514
[...]
    18  H   -0.004211  -0.002709  -0.043947  -0.043689  -0.043963  -0.002711
    19  H   -0.002710  -0.004213  -0.002712  -0.043960  -0.043695  -0.043954
    20  H   -0.043955  -0.002711  -0.004214  -0.002710  -0.043947  -0.043696
    21  Bq   0.000000   0.000000   0.000000   0.000000   0.000000   0.000000
    22  Bq   0.000000   0.000000   0.000000   0.000000   0.000000   0.000000
    23  Bq   0.000000   0.000000   0.000000   0.000000   0.000000   0.000000
              7          8          9         10         11         12
     1  C    0.003332   0.000186   0.000220   0.000186   0.003331   0.005797
     2  C    0.000186   0.000220   0.000186   0.003330   0.005795   0.003332
     3  C    0.000220   0.000186   0.003331   0.005798   0.003333   0.000186
     4  C    0.000186   0.003332   0.005797   0.003331   0.000186   0.000220
     5  C    0.003329   0.005796   0.003333   0.000186   0.000220   0.000186
     6  C    0.005798   0.003332   0.000186   0.000220   0.000186   0.003332
     7  H    0.092856   0.001915   0.000076   0.000005   0.000076   0.001913
     8  H    0.001915   0.092871   0.001914   0.000076   0.000005   0.000076
     9  H    0.000076   0.001914   0.092863   0.001914   0.000076   0.000005
    10  H    0.000005   0.000076   0.001914   0.092854   0.001914   0.000076
    11  H    0.000076   0.000005   0.000076   0.001914   0.092870   0.001915
    12  H    0.001913   0.000076   0.000005   0.000076   0.001915   0.092863
    13  Bq   0.000000   0.000000   0.000000   0.000000   0.000000   0.000000
    14  Bq   0.000000   0.000000   0.000000   0.000000   0.000000   0.000000
    15  H   -0.004075  -0.000703  -0.000094  -0.000703  -0.004076  -0.043874
    16  H   -0.000703  -0.000094  -0.000703  -0.004076  -0.043876  -0.004075
    17  H   -0.000094  -0.000703  -0.004075  -0.043869  -0.004075  -0.000703
    18  H   -0.000703  -0.004077  -0.043874  -0.004075  -0.000703  -0.000094
    19  H   -0.004076  -0.043877  -0.004076  -0.000703  -0.000094  -0.000703
    20  H   -0.043871  -0.004075  -0.000703  -0.000094  -0.000703  -0.004075
    21  Bq   0.000000   0.000000   0.000000   0.000000   0.000000   0.000000
    22  Bq   0.000000   0.000000   0.000000   0.000000   0.000000   0.000000
    23  Bq   0.000000   0.000000   0.000000   0.000000   0.000000   0.000000
             13         14         15         16         17         18
     1  C    0.000000   0.000000  -0.043689  -0.043952  -0.002710  -0.004211
     2  C    0.000000   0.000000  -0.043954  -0.043694  -0.043953  -0.002709
     3  C    0.000000   0.000000  -0.002711  -0.043961  -0.043696  -0.043947
     4  C    0.000000   0.000000  -0.004211  -0.002709  -0.043947  -0.043689
     5  C    0.000000   0.000000  -0.002709  -0.004213  -0.002711  -0.043963
     6  C    0.000000   0.000000  -0.043956  -0.002712  -0.004214  -0.002711
     7  H    0.000000   0.000000  -0.004075  -0.000703  -0.000094  -0.000703
     8  H    0.000000   0.000000  -0.000703  -0.000094  -0.000703  -0.004077
     9  H    0.000000   0.000000  -0.000094  -0.000703  -0.004075  -0.043874
    10  H    0.000000   0.000000  -0.000703  -0.004076  -0.043869  -0.004075
    11  H    0.000000   0.000000  -0.004076  -0.043876  -0.004075  -0.000703
    12  H    0.000000   0.000000  -0.043874  -0.004075  -0.000703  -0.000094
    13  Bq   0.000000   0.000000   0.000000   0.000000   0.000000   0.000000
    14  Bq   0.000000   0.000000   0.000000   0.000000   0.000000   0.000000
    15  H    0.000000   0.000000   0.244426   0.030507   0.010689   0.002285
    16  H    0.000000   0.000000   0.030507   0.244440   0.030509   0.010688
    17  H    0.000000   0.000000   0.010689   0.030509   0.244412   0.030501
    18  H    0.000000   0.000000   0.002285   0.010688   0.030501   0.244427
    19  H    0.000000   0.000000   0.010688   0.002286   0.010691   0.030512
    20  H    0.000000   0.000000   0.030506   0.010691   0.002286   0.010689
    21  Bq   0.000000   0.000000   0.000000   0.000000   0.000000   0.000000
    22  Bq   0.000000   0.000000   0.000000   0.000000   0.000000   0.000000
    23  Bq   0.000000   0.000000   0.000000   0.000000   0.000000   0.000000
             19         20         21         22         23
     1  C   -0.002710  -0.043955   0.000000   0.000000   0.000000
     2  C   -0.004213  -0.002711   0.000000   0.000000   0.000000
     3  C   -0.002712  -0.004214   0.000000   0.000000   0.000000
     4  C   -0.043960  -0.002710   0.000000   0.000000   0.000000
     5  C   -0.043695  -0.043947   0.000000   0.000000   0.000000
     6  C   -0.043954  -0.043696   0.000000   0.000000   0.000000
     7  H   -0.004076  -0.043871   0.000000   0.000000   0.000000
     8  H   -0.043877  -0.004075   0.000000   0.000000   0.000000
     9  H   -0.004076  -0.000703   0.000000   0.000000   0.000000
    10  H   -0.000703  -0.000094   0.000000   0.000000   0.000000
    11  H   -0.000094  -0.000703   0.000000   0.000000   0.000000
    12  H   -0.000703  -0.004075   0.000000   0.000000   0.000000
    13  Bq   0.000000   0.000000   0.000000   0.000000   0.000000
    14  Bq   0.000000   0.000000   0.000000   0.000000   0.000000
    15  H    0.010688   0.030506   0.000000   0.000000   0.000000
    16  H    0.002286   0.010691   0.000000   0.000000   0.000000
    17  H    0.010691   0.002286   0.000000   0.000000   0.000000
    18  H    0.030512   0.010689   0.000000   0.000000   0.000000
    19  H    0.244442   0.030505   0.000000   0.000000   0.000000
    20  H    0.030505   0.244418   0.000000   0.000000   0.000000
    21  Bq   0.000000   0.000000   0.000000   0.000000   0.000000
    22  Bq   0.000000   0.000000   0.000000   0.000000   0.000000
    23  Bq   0.000000   0.000000   0.000000   0.000000   0.000000
 Mulliken atomic spin densities:
              1
     1  C    0.142619
     2  C    0.142623
     3  C    0.142595
     4  C    0.142618
     5  C    0.142626
     6  C    0.142600
     7  H    0.056370
     8  H    0.056379
     9  H    0.056375
    10  H    0.056369
    11  H    0.056378
    12  H    0.056375
    13  Bq   0.000000
    14  Bq   0.000000
    15  H    0.134345
    16  H    0.134351
    17  H    0.134338
    18  H    0.134345
    19  H    0.134353
    20  H    0.134341
    21  Bq   0.000000
    22  Bq   0.000000
    23  Bq   0.000000
 Sum of Mulliken atomic spin densities =   2.00000
 N-N= 2.761853400839D+02 E-N=-1.631300013846D+03  KE= 3.481855906285D+02
 Orbital energies and kinetic energies (alpha):
                                 1                 2
   1         O                -9.861108         15.424724
   2         O                -9.860428         15.455246
   3         O                -9.860420         15.455247
   4         O                -9.859130         15.513265
   5         O                -9.859122         15.513268
   6         O                -9.858245         15.548721
   7         O                -1.044731          1.315010
   8         O                -0.945359          1.474966
   9         O                -0.945317          1.474928
  10         O                -0.789447          1.440783
  11         O                -0.789431          1.440769
  12         O                -0.679862          0.907329
  13         O                -0.624239          1.476752
  14         O                -0.620187          1.308839
  15         O                -0.619453          0.975037
  16         O                -0.559426          1.260394
  17         O                -0.559364          1.260542
  18         O                -0.549410          1.077628
  19         O                -0.549392          1.077593
  20         O                -0.490425          1.391840
  21         O                -0.490398          1.391876
  22         O                -0.391233          1.397536
  23         O                -0.391214          1.397579
  24         O                -0.284147          1.617508
  25         O                 0.019102          1.628469
  26         V                 0.116299          2.028161
  27         V                 0.116321          2.028138
  28         V                 0.118557          2.861010
  29         V                 0.118617          2.860967
  30         V                 0.146096          2.171450
  31         V                 0.146118          2.171613
  32         V                 0.162494          2.146177
  33         V                 0.179083          2.884587
  34         V                 0.313836          2.494984
  35         V                 0.313850          2.495101
  36         V                 0.361412          3.188623
  37         V                 0.361449          3.188777
  38         V                 0.405097          3.365345
  39         V                 0.460635          3.007004
  40         V                 0.521116          3.295358
  41         V                 0.521144          3.295528
  42         V                 0.695963          3.799324
 Orbital energies and kinetic energies (beta):
                                 1                 2
   1         O                -9.861108         15.424724
   2         O                -9.860428         15.455246
   3         O                -9.860420         15.455247
   4         O                -9.859130         15.513265
   5         O                -9.859122         15.513268
   6         O                -9.858245         15.548721
   7         O                -1.044731          1.315010
   8         O                -0.945359          1.474966
   9         O                -0.945317          1.474928
  10         O                -0.789447          1.440783
  11         O                -0.789431          1.440769
  12         O                -0.679862          0.907329
  13         O                -0.624239          1.476752
  14         O                -0.620187          1.308839
  15         O                -0.619453          0.975037
  16         O                -0.559426          1.260394
  17         O                -0.559364          1.260542
  18         O                -0.549410          1.077628
  19         O                -0.549392          1.077593
  20         O                -0.490425          1.391840
  21         O                -0.490398          1.391876
  22         O                -0.391233          1.397536
  23         O                -0.391214          1.397579
  24         V                -0.284147          1.617508
  25         V                 0.019102          1.628469
  26         V                 0.116299          2.028161
  27         V                 0.116321          2.028138
  28         V                 0.118557          2.861010
  29         V                 0.118617          2.860967
  30         V                 0.146096          2.171450
  31         V                 0.146118          2.171613
  32         V                 0.162494          2.146177
  33         V                 0.179083          2.884587
  34         V                 0.313836          2.494984
  35         V                 0.313850          2.495101
  36         V                 0.361412          3.188623
  37         V                 0.361449          3.188777
  38         V                 0.405097          3.365345
  39         V                 0.460635          3.007004
  40         V                 0.521116          3.295358
  41         V                 0.521144          3.295528
  42         V                 0.695963          3.799324
 Total kinetic energy from orbitals= 2.332057191965D+02
 --------------------------------------------------------
       Center         ----  Spin Dipole Couplings  ----
                      3XX-RR        3YY-RR        3ZZ-RR
 --------------------------------------------------------
     1   Atom       -0.093843      0.211432     -0.117589
     2   Atom       -0.093850      0.211438     -0.117588
     3   Atom       -0.129428      0.211387     -0.081958
     4   Atom       -0.093851      0.211432     -0.117581
     5   Atom       -0.093859      0.211441     -0.117582
     6   Atom       -0.129432      0.211392     -0.081959
     7   Atom       -0.018110     -0.011825      0.029935
     8   Atom        0.017926     -0.011826     -0.006101
     9   Atom        0.017919     -0.011825     -0.006094
    10   Atom       -0.018110     -0.011825      0.029935
    11   Atom        0.017931     -0.011826     -0.006105
    12   Atom        0.017924     -0.011825     -0.006098
    13   Atom        0.018712     -0.037423      0.018711
    14   Atom        0.014428     -0.028856      0.014428
    15   Atom       -0.016453      0.030464     -0.014011
    16   Atom       -0.016454      0.030464     -0.014010
    17   Atom       -0.012784      0.030458     -0.017674
    18   Atom       -0.016454      0.030464     -0.014009
    19   Atom       -0.016456      0.030465     -0.014009
    20   Atom       -0.012785      0.030459     -0.017674
    21   Atom        0.000170     -0.000024     -0.000145
    22   Atom        0.000333     -0.000044     -0.000289
    23   Atom        0.000085      0.000712     -0.000797
 --------------------------------------------------------
                        XY            XZ            YZ
 --------------------------------------------------------
     1   Atom       -0.109385      0.020555     -0.063139
     2   Atom       -0.109381     -0.020557      0.063159
     3   Atom        0.000010      0.000005      0.126295
     4   Atom        0.109378      0.020560      0.063149
     5   Atom        0.109377     -0.020562     -0.063172
     6   Atom        0.000003     -0.000004     -0.126301
     7   Atom       -0.000001     -0.000009     -0.000466
     8   Atom        0.000402     -0.020807     -0.000233
     9   Atom        0.000402      0.020812      0.000231
    10   Atom        0.000001     -0.000004      0.000467
    11   Atom       -0.000402     -0.020804      0.000233
    12   Atom       -0.000402      0.020809     -0.000232
    13   Atom        0.000000     -0.000004      0.000000
    14   Atom        0.000000     -0.000004      0.000000
    15   Atom        0.014986     -0.002115      0.008652
    16   Atom        0.014986      0.002116     -0.008653
    17   Atom        0.000001      0.000002     -0.017305
    18   Atom       -0.014988     -0.002114     -0.008649
    19   Atom       -0.014988      0.002115      0.008651
    20   Atom        0.000001      0.000001      0.017305
    21   Atom       -0.000562     -0.000475      0.000406
    22   Atom       -0.001122     -0.000939      0.000812
    23   Atom       -0.002244     -0.001352      0.001644
 --------------------------------------------------------


 ---------------------------------------------------------------------------------
              Anisotropic Spin Dipole Couplings in Principal Axis System
 ---------------------------------------------------------------------------------

       Atom             a.u.   MegaHertz   Gauss  10(-4) cm-1        Axes

              Baa    -0.1295   -17.371    -6.199    -5.794 -0.5001 -0.0001  0.8660
     1 C(13)  Bbb    -0.1289   -17.291    -6.170    -5.768  0.8118  0.3480  0.4689
              Bcc     0.2583    34.663    12.368    11.562 -0.3014  0.9375 -0.1740
 
              Baa    -0.1295   -17.372    -6.199    -5.795  0.4967 -0.0014  0.8679
     2 C(13)  Bbb    -0.1289   -17.292    -6.170    -5.768  0.8139  0.3480 -0.4652
              Bcc     0.2583    34.664    12.369    11.563 -0.3013  0.9375  0.1740
 
              Baa    -0.1294   -17.368    -6.197    -5.793  1.0000  0.0006 -0.0016
     3 C(13)  Bbb    -0.1288   -17.289    -6.169    -5.767  0.0017 -0.3480  0.9375
              Bcc     0.2583    34.657    12.367    11.560  0.0000  0.9375  0.3480
 
              Baa    -0.1295   -17.371    -6.199    -5.794 -0.5061  0.0026  0.8625
     4 C(13)  Bbb    -0.1289   -17.291    -6.170    -5.768  0.8081 -0.3480  0.4753
              Bcc     0.2583    34.663    12.368    11.562  0.3013  0.9375  0.1740
 
              Baa    -0.1295   -17.372    -6.199    -5.795  0.5016 -0.0006  0.8651
     5 C(13)  Bbb    -0.1289   -17.292    -6.170    -5.768  0.8109 -0.3480 -0.4704
              Bcc     0.2583    34.664    12.369    11.563  0.3013  0.9375 -0.1740
 
              Baa    -0.1294   -17.369    -6.198    -5.794  1.0000  0.0016  0.0045
     6 C(13)  Bbb    -0.1288   -17.290    -6.169    -5.767 -0.0047  0.3480  0.9375
              Bcc     0.2583    34.658    12.367    11.561  0.0000  0.9375 -0.3480
 
              Baa    -0.0181    -9.663    -3.448    -3.223  1.0000  0.0002  0.0002
     7 H(1)   Bbb    -0.0118    -6.312    -2.252    -2.106 -0.0002  0.9999  0.0112
              Bcc     0.0299    15.975     5.700     5.329 -0.0002 -0.0112  0.9999
 
              Baa    -0.0181    -9.664    -3.448    -3.224  0.5000  0.0001  0.8660
     8 H(1)   Bbb    -0.0118    -6.312    -2.252    -2.106 -0.0097  0.9999  0.0055
              Bcc     0.0299    15.977     5.701     5.329  0.8660  0.0111 -0.5000
 
              Baa    -0.0181    -9.665    -3.449    -3.224 -0.5002  0.0001  0.8659
     9 H(1)   Bbb    -0.0118    -6.312    -2.252    -2.105 -0.0096  0.9999 -0.0057
              Bcc     0.0299    15.977     5.701     5.329  0.8659  0.0111  0.5001
 
              Baa    -0.0181    -9.662    -3.448    -3.223  1.0000 -0.0001  0.0001
    10 H(1)   Bbb    -0.0118    -6.312    -2.252    -2.106  0.0001  0.9999 -0.0112
              Bcc     0.0299    15.975     5.700     5.329 -0.0001  0.0112  0.9999
 
              Baa    -0.0181    -9.664    -3.448    -3.224  0.4999 -0.0002  0.8661
    11 H(1)   Bbb    -0.0118    -6.312    -2.252    -2.106  0.0097  0.9999 -0.0054
              Bcc     0.0299    15.977     5.701     5.329  0.8660 -0.0111 -0.4999
 
              Baa    -0.0181    -9.665    -3.449    -3.224 -0.5000  0.0000  0.8660
    12 H(1)   Bbb    -0.0118    -6.312    -2.252    -2.105  0.0096  0.9999  0.0056
              Bcc     0.0299    15.977     5.701     5.329  0.8659 -0.0111  0.5000
 
              Baa    -0.0232   -12.405    -4.426    -4.138  0.8243 -0.3066  0.4759
    15 H(1)   Bbb    -0.0128    -6.824    -2.435    -2.276 -0.5000  0.0000  0.8660
              Bcc     0.0360    19.229     6.861     6.414  0.2656  0.9518  0.1533
 
              Baa    -0.0233   -12.405    -4.427    -4.138  0.8243 -0.3066 -0.4759
    16 H(1)   Bbb    -0.0128    -6.823    -2.435    -2.276  0.5000  0.0000  0.8660
              Bcc     0.0360    19.229     6.861     6.414  0.2656  0.9518 -0.1533
 
              Baa    -0.0232   -12.405    -4.426    -4.138 -0.0002  0.3067  0.9518
    17 H(1)   Bbb    -0.0128    -6.821    -2.434    -2.275  1.0000  0.0001  0.0002
              Bcc     0.0360    19.226     6.860     6.413  0.0000  0.9518 -0.3067
 
              Baa    -0.0232   -12.404    -4.426    -4.138  0.8244  0.3066  0.4757
    18 H(1)   Bbb    -0.0128    -6.824    -2.435    -2.276 -0.4998  0.0000  0.8662
              Bcc     0.0360    19.228     6.861     6.414 -0.2656  0.9518 -0.1533
 
              Baa    -0.0233   -12.406    -4.427    -4.138  0.8244  0.3066 -0.4757
    19 H(1)   Bbb    -0.0128    -6.824    -2.435    -2.276  0.4998  0.0000  0.8661
              Bcc     0.0360    19.229     6.861     6.414 -0.2656  0.9518  0.1533
 
              Baa    -0.0233   -12.405    -4.426    -4.138  0.0000 -0.3067  0.9518
    20 H(1)   Bbb    -0.0128    -6.821    -2.434    -2.275  1.0000  0.0000  0.0000
              Bcc     0.0360    19.226     6.860     6.413  0.0000  0.9518  0.3067
 

 ---------------------------------------------------------------------------------


 This type of calculation cannot be archived.


 THE ONLY DIFFERENCE BETWEEN ECCENTRICS AND JOGGERS
 IS THAT JOGGERS WEAR SWEATBANDS WHEN THEY RUN IN THE RAIN.
 Job cpu time:  0 days  0 hours  0 minutes  2.0 seconds.
 File lengths (MBytes):  RWF=      5 Int=      0 D2E=      0 Chk=      1 Scr=      1
 Normal termination of Gaussian 09 at Mon Dec 21 10:53:16 2020.
